 Entering Link 1 = D:\software\G09W\l1.exe PID=     49056.
  
 Copyright (c) 1988,1990,1992,1993,1995,1998,2003,2009,2013,
            Gaussian, Inc.  All Rights Reserved.
  
 This is part of the Gaussian(R) 09 program.  It is based on
 the Gaussian(R) 03 system (copyright 2003, Gaussian, Inc.),
 the Gaussian(R) 98 system (copyright 1998, Gaussian, Inc.),
 the Gaussian(R) 94 system (copyright 1995, Gaussian, Inc.),
 the Gaussian 92(TM) system (copyright 1992, Gaussian, Inc.),
 the Gaussian 90(TM) system (copyright 1990, Gaussian, Inc.),
 the Gaussian 88(TM) system (copyright 1988, Gaussian, Inc.),
 the Gaussian 86(TM) system (copyright 1986, Carnegie Mellon
 University), and the Gaussian 82(TM) system (copyright 1983,
 Carnegie Mellon University). Gaussian is a federally registered
 trademark of Gaussian, Inc.
  
 This software contains proprietary and confidential information,
 including trade secrets, belonging to Gaussian, Inc.
  
 This software is provided under written license and may be
 used, copied, transmitted, or stored only in accord with that
 written license.
  
 The following legend is applicable only to US Government
 contracts under FAR:
  
                    RESTRICTED RIGHTS LEGEND
  
 Use, reproduction and disclosure by the US Government is
 subject to restrictions as set forth in subparagraphs (a)
 and (c) of the Commercial Computer Software - Restricted
 Rights clause in FAR 52.227-19.
  
 Gaussian, Inc.
 340 Quinnipiac St., Bldg. 40, Wallingford CT 06492
  
  
 ---------------------------------------------------------------
 Warning -- This program may not be used in any manner that
 competes with the business of Gaussian, Inc. or will provide
 assistance to any competitor of Gaussian, Inc.  The licensee
 of this program is prohibited from giving any competitor of
 Gaussian, Inc. access to this program.  By using this program,
 the user acknowledges that Gaussian, Inc. is engaged in the
 business of creating and licensing software in the field of
 computational chemistry and represents and warrants to the
 licensee that it is not a competitor of Gaussian, Inc. and that
 it will not use this program in any manner prohibited above.
 ---------------------------------------------------------------
  

 Cite this work as:
 Gaussian 09, Revision D.01,
 M. J. Frisch, G. W. Trucks, H. B. Schlegel, G. E. Scuseria, 
 M. A. Robb, J. R. Cheeseman, G. Scalmani, V. Barone, B. Mennucci, 
 G. A. Petersson, H. Nakatsuji, M. Caricato, X. Li, H. P. Hratchian, 
 A. F. Izmaylov, J. Bloino, G. Zheng, J. L. Sonnenberg, M. Hada, 
 M. Ehara, K. Toyota, R. Fukuda, J. Hasegawa, M. Ishida, T. Nakajima, 
 Y. Honda, O. Kitao, H. Nakai, T. Vreven, J. A. Montgomery, Jr., 
 J. E. Peralta, F. Ogliaro, M. Bearpark, J. J. Heyd, E. Brothers, 
 K. N. Kudin, V. N. Staroverov, T. Keith, R. Kobayashi, J. Normand, 
 K. Raghavachari, A. Rendell, J. C. Burant, S. S. Iyengar, J. Tomasi, 
 M. Cossi, N. Rega, J. M. Millam, M. Klene, J. E. Knox, J. B. Cross, 
 V. Bakken, C. Adamo, J. Jaramillo, R. Gomperts, R. E. Stratmann, 
 O. Yazyev, A. J. Austin, R. Cammi, C. Pomelli, J. W. Ochterski, 
 R. L. Martin, K. Morokuma, V. G. Zakrzewski, G. A. Voth, 
 P. Salvador, J. J. Dannenberg, S. Dapprich, A. D. Daniels, 
 O. Farkas, J. B. Foresman, J. V. Ortiz, J. Cioslowski, 
 and D. J. Fox, Gaussian, Inc., Wallingford CT, 2013.
 
 ******************************************
 Gaussian 09:  IA32W-G09RevD.01 24-Apr-2013
                27-May-2026 
 ******************************************
 %chk=D:\work\bbs\gau_xtb\TS.chk
 %nprocshared=1
 Will use up to    1 processors via shared memory.
 ----------------------------------------------------------------------
 #p opt=(calcfc,ts,noeigen,nomicro) external='python3 D:\work\bbs\gau_x
 tb\gau_xtb.py'
 ----------------------------------------------------------------------
 1/5=1,10=4,11=1,14=-1,18=20,26=1,38=1/1,3;
 2/9=110,12=2,17=6,18=5,40=1/2;
 3/11=9,16=1,25=1,30=1,41=9900000,43=2,71=2,140=1/1;
 4/20=17,22=2,24=3,113=1,114=1/2;
 6/7=2,8=2,9=2,10=2/1;
 7/25=1,44=-1/16;
 1/5=1,10=4,11=1,14=-1,18=20,26=1/3(2);
 2/9=110/2;
 99//99;
 2/9=110/2;
 3/11=9,16=1,25=1,30=1,41=9900000,43=2,71=1/1;
 4/16=2,20=17,22=1,24=3,113=1,114=1/2;
 7/44=-1/16;
 1/5=1,11=1,14=-1,18=20,26=1/3(-4);
 2/9=110/2;
 6/7=2,8=2,9=2,10=2/1;
 99//99;
 Leave Link    1 at Wed May 27 04:23:53 2026, MaxMem=           0 cpu:         0.0
 (Enter D:\software\G09W\l101.exe)
 -------------------
 Title Card Required
 -------------------
 Symbolic Z-matrix:
 Charge =  0 Multiplicity = 1
 C                    -1.63584  -0.21809   0.1809 
 C                    -0.31253  -0.78768  -0.12992 
 C                    -0.69293   0.88702  -0.24226 
 H                    -2.44474  -0.49942  -0.48067 
 H                    -1.93454  -0.16341   1.2185 
 H                    -0.17138  -1.46736  -0.97248 
 H                    -0.63823   1.76627   0.38322 
 H                    -0.66553   1.13167  -1.29982 
 C                     0.66396   0.0009    0.49925 
 O                     1.89765  -0.06104  -0.13644 
 H                     2.53733   0.42771   0.39492 
 
 NAtoms=     11 NQM=       11 NQMF=       0 NMMI=      0 NMMIF=      0
                NMic=       0 NMicF=      0.
                    Isotopes and Nuclear Properties:
 (Nuclear quadrupole moments (NQMom) in fm**2, nuclear magnetic moments (NMagM)
  in nuclear magnetons)

  Atom         1           2           3           4           5           6           7           8           9          10
 IAtWgt=          12          12          12           1           1           1           1           1          12          16
 AtmWgt=  12.0000000  12.0000000  12.0000000   1.0078250   1.0078250   1.0078250   1.0078250   1.0078250  12.0000000  15.9949146
 NucSpn=           0           0           0           1           1           1           1           1           0           0
 AtZEff=   0.0000000   0.0000000   0.0000000   0.0000000   0.0000000   0.0000000   0.0000000   0.0000000   0.0000000   0.0000000
 NQMom=    0.0000000   0.0000000   0.0000000   0.0000000   0.0000000   0.0000000   0.0000000   0.0000000   0.0000000   0.0000000
 NMagM=    0.0000000   0.0000000   0.0000000   2.7928460   2.7928460   2.7928460   2.7928460   2.7928460   0.0000000   0.0000000
 AtZNuc=   6.0000000   6.0000000   6.0000000   1.0000000   1.0000000   1.0000000   1.0000000   1.0000000   6.0000000   8.0000000

  Atom        11
 IAtWgt=           1
 AtmWgt=   1.0078250
 NucSpn=           1
 AtZEff=   0.0000000
 NQMom=    0.0000000
 NMagM=    2.7928460
 AtZNuc=   1.0000000
 Leave Link  101 at Wed May 27 04:23:53 2026, MaxMem=    33554432 cpu:         0.0
 (Enter D:\software\G09W\l103.exe)

 GradGradGradGradGradGradGradGradGradGradGradGradGradGradGradGradGradGrad
 Berny optimization.
 Initialization pass.
                           ----------------------------
                           !    Initial Parameters    !
                           ! (Angstroms and Degrees)  !
 --------------------------                            --------------------------
 ! Name  Definition              Value          Derivative Info.                !
 --------------------------------------------------------------------------------
 ! R1    R(1,2)                  1.4738         calculate D2E/DX2 analytically  !
 ! R2    R(1,3)                  1.5131         calculate D2E/DX2 analytically  !
 ! R3    R(1,4)                  1.0822         calculate D2E/DX2 analytically  !
 ! R4    R(1,5)                  1.0811         calculate D2E/DX2 analytically  !
 ! R5    R(2,3)                  1.721          calculate D2E/DX2 analytically  !
 ! R6    R(2,6)                  1.0917         calculate D2E/DX2 analytically  !
 ! R7    R(2,9)                  1.404          calculate D2E/DX2 analytically  !
 ! R8    R(3,7)                  1.0804         calculate D2E/DX2 analytically  !
 ! R9    R(3,8)                  1.0858         calculate D2E/DX2 analytically  !
 ! R10   R(3,9)                  1.7822         calculate D2E/DX2 analytically  !
 ! R11   R(9,10)                 1.3892         calculate D2E/DX2 analytically  !
 ! R12   R(10,11)                0.9646         calculate D2E/DX2 analytically  !
 ! A1    A(2,1,4)              116.2144         calculate D2E/DX2 analytically  !
 ! A2    A(2,1,5)              118.0349         calculate D2E/DX2 analytically  !
 ! A3    A(3,1,4)              118.9931         calculate D2E/DX2 analytically  !
 ! A4    A(3,1,5)              113.8064         calculate D2E/DX2 analytically  !
 ! A5    A(4,1,5)              113.1631         calculate D2E/DX2 analytically  !
 ! A6    A(1,2,6)              121.2964         calculate D2E/DX2 analytically  !
 ! A7    A(1,2,9)              108.2339         calculate D2E/DX2 analytically  !
 ! A8    A(3,2,6)              125.7342         calculate D2E/DX2 analytically  !
 ! A9    A(6,2,9)              127.2732         calculate D2E/DX2 analytically  !
 ! A10   A(1,3,7)              117.6473         calculate D2E/DX2 analytically  !
 ! A11   A(1,3,8)              116.9152         calculate D2E/DX2 analytically  !
 ! A12   A(1,3,9)               89.711          calculate D2E/DX2 analytically  !
 ! A13   A(2,3,7)              137.9806         calculate D2E/DX2 analytically  !
 ! A14   A(2,3,8)              106.0957         calculate D2E/DX2 analytically  !
 ! A15   A(7,3,8)              112.2849         calculate D2E/DX2 analytically  !
 ! A16   A(7,3,9)               97.1928         calculate D2E/DX2 analytically  !
 ! A17   A(8,3,9)              119.8707         calculate D2E/DX2 analytically  !
 ! A18   A(2,9,10)             112.8013         calculate D2E/DX2 analytically  !
 ! A19   A(3,9,10)             120.5244         calculate D2E/DX2 analytically  !
 ! A20   A(9,10,11)            108.3165         calculate D2E/DX2 analytically  !
 ! D1    D(4,1,2,6)             -0.9949         calculate D2E/DX2 analytically  !
 ! D2    D(4,1,2,9)            160.1767         calculate D2E/DX2 analytically  !
 ! D3    D(5,1,2,6)            138.3736         calculate D2E/DX2 analytically  !
 ! D4    D(5,1,2,9)            -60.4548         calculate D2E/DX2 analytically  !
 ! D5    D(4,1,3,7)            119.2344         calculate D2E/DX2 analytically  !
 ! D6    D(4,1,3,8)            -19.0133         calculate D2E/DX2 analytically  !
 ! D7    D(4,1,3,9)           -142.7926         calculate D2E/DX2 analytically  !
 ! D8    D(5,1,3,7)            -18.1585         calculate D2E/DX2 analytically  !
 ! D9    D(5,1,3,8)           -156.4062         calculate D2E/DX2 analytically  !
 ! D10   D(5,1,3,9)             79.8145         calculate D2E/DX2 analytically  !
 ! D11   D(6,2,3,7)           -160.7713         calculate D2E/DX2 analytically  !
 ! D12   D(6,2,3,8)             -5.2825         calculate D2E/DX2 analytically  !
 ! D13   D(1,2,9,10)          -154.4312         calculate D2E/DX2 analytically  !
 ! D14   D(6,2,9,10)             5.292          calculate D2E/DX2 analytically  !
 ! D15   D(1,3,9,10)           139.1286         calculate D2E/DX2 analytically  !
 ! D16   D(7,3,9,10)          -103.0267         calculate D2E/DX2 analytically  !
 ! D17   D(8,3,9,10)            17.8546         calculate D2E/DX2 analytically  !
 ! D18   D(2,9,10,11)         -174.3513         calculate D2E/DX2 analytically  !
 ! D19   D(3,9,10,11)          113.2315         calculate D2E/DX2 analytically  !
 --------------------------------------------------------------------------------
 Trust Radius=3.00D-01 FncErr=1.00D-07 GrdErr=1.00D-07
 Number of steps in this run=     61 maximum allowed number of steps=    100.
 Search for a saddle point of order  1.
 GradGradGradGradGradGradGradGradGradGradGradGradGradGradGradGradGradGrad

 Leave Link  103 at Wed May 27 04:23:53 2026, MaxMem=    33554432 cpu:         0.0
 (Enter D:\software\G09W\l202.exe)
                          Input orientation:                          
 ---------------------------------------------------------------------
 Center     Atomic      Atomic             Coordinates (Angstroms)
 Number     Number       Type             X           Y           Z
 ---------------------------------------------------------------------
      1          6           0       -1.635843   -0.218087    0.180898
      2          6           0       -0.312534   -0.787684   -0.129917
      3          6           0       -0.692932    0.887018   -0.242261
      4          1           0       -2.444741   -0.499422   -0.480671
      5          1           0       -1.934541   -0.163413    1.218504
      6          1           0       -0.171383   -1.467360   -0.972479
      7          1           0       -0.638228    1.766267    0.383216
      8          1           0       -0.665529    1.131666   -1.299820
      9          6           0        0.663963    0.000901    0.499253
     10          8           0        1.897646   -0.061042   -0.136438
     11          1           0        2.537333    0.427706    0.394917
 ---------------------------------------------------------------------
                    Distance matrix (angstroms):
                    1          2          3          4          5
     1  C    0.000000
     2  C    1.473836   0.000000
     3  C    1.513077   1.721032   0.000000
     4  H    1.082192   2.180007   2.246751   0.000000
     5  H    1.081127   2.199741   2.186054   1.805658   0.000000
     6  H    2.244015   1.091693   2.519589   2.519313   3.099905
     7  H    2.230208   2.625271   1.080413   3.023762   2.470182
     8  H    2.226178   2.275342   1.085834   2.548931   3.103156
     9  C    2.332041   1.404018   1.782193   3.297668   2.701212
    10  O    3.551184   2.326574   2.760636   4.378013   4.065957
    11  H    4.228268   3.142350   3.324391   5.142692   4.585343
                    6          7          8          9         10
     6  H    0.000000
     7  H    3.537258   0.000000
     8  H    2.665759   1.798909   0.000000
     9  C    2.240444   2.196744   2.506560   0.000000
    10  O    2.637722   3.168557   3.057103   1.389213   0.000000
    11  H    3.577456   3.446167   3.691344   1.924205   0.964579
                   11
    11  H    0.000000
 Stoichiometry    C4H6O
 Framework group  C1[X(C4H6O)]
 Deg. of freedom    27
 Full point group                 C1      NOp   1
 Largest Abelian subgroup         C1      NOp   1
 Largest concise Abelian subgroup C1      NOp   1
                         Standard orientation:                         
 ---------------------------------------------------------------------
 Center     Atomic      Atomic             Coordinates (Angstroms)
 Number     Number       Type             X           Y           Z
 ---------------------------------------------------------------------
      1          6           0        1.635843   -0.218087   -0.180898
      2          6           0        0.312534   -0.787684    0.129917
      3          6           0        0.692932    0.887018    0.242261
      4          1           0        2.444741   -0.499422    0.480671
      5          1           0        1.934541   -0.163413   -1.218504
      6          1           0        0.171383   -1.467360    0.972479
      7          1           0        0.638228    1.766267   -0.383216
      8          1           0        0.665529    1.131666    1.299820
      9          6           0       -0.663963    0.000901   -0.499253
     10          8           0       -1.897646   -0.061042    0.136438
     11          1           0       -2.537333    0.427706   -0.394917
 ---------------------------------------------------------------------
 Rotational constants (GHZ):     14.9421096      3.9425489      3.5202290
 Leave Link  202 at Wed May 27 04:23:53 2026, MaxMem=    33554432 cpu:         0.0
 (Enter D:\software\G09W\l301.exe)
 Standard basis: STO-3G (5D, 7F)
 Ernie: Thresh=  0.10000D-02 Tol=  0.10000D-05 Strict=F.
 There are    31 symmetry adapted cartesian basis functions of A   symmetry.
 There are    31 symmetry adapted basis functions of A   symmetry.
    31 basis functions,    93 primitive gaussians,    31 cartesian basis functions
    19 alpha electrons       19 beta electrons
       nuclear repulsion energy       167.2079264482 Hartrees.
 IExCor=    0 DFT=F Ex=HF Corr=None ExCW=0 ScaHFX=  1.000000
 ScaDFX=  1.000000  1.000000  1.000000  1.000000 ScalE2=  1.000000  1.000000
 IRadAn=      0 IRanWt=     -1 IRanGd=            0 ICorTp=0 IEmpDi=  4
 NAtoms=   11 NActive=   11 NUniq=   11 SFac= 1.00D+00 NAtFMM=   60 NAOKFM=F Big=F
 Integral buffers will be    262144 words long.
 Raffenetti 1 integral format.
 Two-electron integral symmetry is turned on.
 Leave Link  301 at Wed May 27 04:23:53 2026, MaxMem=    33554432 cpu:         0.0
 (Enter D:\software\G09W\l402.exe)
 External calculation of energy, first and second derivatives.
 Running external command "python3 D:\work\bbs\gau_xtb\gau_xtb.py R"
         input file       "D:\software\G09W\Scratch\gxx.EIn"
         output file      "D:\software\G09W\Scratch\gxx.EOu"
         message file     "D:\software\G09W\Scratch\gxx.EMs"
         fchk file        "D:\software\G09W\Scratch\gxx.EFC"
         mat. el file     "D:\software\G09W\Scratch\gxx.EUF"
 Recovered energy= -15.5282218475     dipole=      0.000000000000      0.000000000000      0.000000000000
 Energy=    -15.5282218     NIter=   0.
 Dipole moment=       0.000000       0.000000       0.000000
 Leave Link  402 at Wed May 27 04:23:54 2026, MaxMem=    33554432 cpu:         1.0
 (Enter D:\software\G09W\l601.exe)
 Leave Link  601 at Wed May 27 04:23:54 2026, MaxMem=    33554432 cpu:         0.0
 (Enter D:\software\G09W\l716.exe)
 Dipole        = 0.00000000D+00 0.00000000D+00 0.00000000D+00
 ***** Axes restored to original set *****
 -------------------------------------------------------------------
 Center     Atomic                   Forces (Hartrees/Bohr)
 Number     Number              X              Y              Z
 -------------------------------------------------------------------
      1        6          -0.000041205    0.000000384    0.000053936
      2        6          -0.000028808   -0.000013151   -0.000016685
      3        6           0.000011082    0.000005293   -0.000135162
      4        1           0.000000192    0.000001385    0.000001178
      5        1          -0.000008441   -0.000000241    0.000001520
      6        1           0.000023103    0.000008498   -0.000024388
      7        1           0.000004457   -0.000011861    0.000027839
      8        1          -0.000008201   -0.000002526    0.000030633
      9        6           0.000029120    0.000017501    0.000080265
     10        8           0.000018393   -0.000005560   -0.000014996
     11        1           0.000000307    0.000000277   -0.000004139
 -------------------------------------------------------------------
 Cartesian Forces:  Max     0.000135162 RMS     0.000032910
 Force constants in Cartesian coordinates: 
                1             2             3             4             5 
      1  0.615151D+00
      2  0.677218D-01  0.292399D+00
      3 -0.176339D-01  0.523094D-01  0.564865D+00
      4 -0.227724D+00  0.613896D-01  0.371900D-01  0.528765D+00
      5  0.979258D-01 -0.531419D-01 -0.461653D-01  0.167735D-01  0.352472D+00
      6  0.416313D-01 -0.296432D-01 -0.628881D-01  0.228324D-01  0.226149D+00
      7 -0.108338D+00 -0.596674D-01  0.277536D-01  0.690028D-02  0.369474D-01
      8 -0.111473D+00 -0.135024D+00  0.510623D-01  0.638454D-02 -0.529936D-01
      9  0.174122D-01  0.265834D-01 -0.688913D-01 -0.292468D-01  0.622140D-01
     10 -0.177236D+00 -0.511323D-01 -0.115966D+00 -0.225297D-01 -0.684661D-02
     11 -0.511439D-01 -0.543354D-01 -0.428872D-01  0.109589D-01  0.590212D-02
     12 -0.118862D+00 -0.423447D-01 -0.143617D+00  0.276987D-02  0.157642D-04
     13 -0.571010D-01  0.294296D-02  0.623977D-01 -0.770050D-02  0.422640D-02
     14  0.376718D-02 -0.327800D-01 -0.161634D-01  0.736759D-02 -0.477017D-02
     15  0.628297D-01 -0.146415D-01 -0.283298D+00  0.478299D-02 -0.258196D-02
     16 -0.618559D-02  0.122162D-01  0.205458D-01 -0.482572D-01  0.189900D-01
     17  0.774571D-02 -0.205433D-02 -0.492686D-02  0.322574D-01 -0.127674D+00
     18 -0.521167D-03 -0.615717D-02 -0.764244D-02  0.189024D-01 -0.101686D+00
     19 -0.296915D-02 -0.194028D-01 -0.134704D-01  0.265496D-02 -0.105390D-01
     20 -0.832457D-02 -0.190159D-01 -0.449622D-02 -0.819083D-02  0.908066D-02
     21  0.226616D-02  0.604702D-02  0.245359D-02  0.296708D-02 -0.287306D-02
     22 -0.142866D-02 -0.493800D-02  0.226665D-01 -0.669899D-02  0.108057D-01
     23  0.120449D-02 -0.440820D-02  0.121837D-01  0.399625D-02 -0.152580D-01
     24  0.397575D-03  0.276638D-02 -0.500771D-02 -0.139548D-02  0.551491D-02
     25 -0.257766D-01 -0.807040D-02 -0.180509D-01 -0.169594D+00 -0.162679D+00
     26 -0.502953D-02  0.700187D-02  0.348393D-02 -0.994634D-01 -0.118850D+00
     27  0.148459D-01  0.103973D-01 -0.215825D-03 -0.342234D-01 -0.147977D+00
     28 -0.695928D-02  0.215023D-03 -0.522322D-02 -0.459207D-01 -0.506971D-02
     29 -0.249639D-02  0.151247D-02 -0.385923D-02 -0.283362D-01  0.357420D-02
     30 -0.301899D-02 -0.554569D-02  0.339764D-02 -0.269646D-01  0.787482D-02
     31 -0.143217D-02 -0.127462D-02 -0.208760D-03 -0.989516D-02 -0.534884D-03
     32  0.102268D-03 -0.153597D-03 -0.541210D-03 -0.313736D-02  0.165943D-02
     33  0.653653D-03  0.228710D-03  0.844168D-03  0.238549D-02 -0.485388D-03
                6             7             8             9            10 
      6  0.373250D+00
      7 -0.290948D-02  0.174142D+00
      8 -0.518810D-02  0.771219D-01  0.467672D+00
      9 -0.275307D-01 -0.545631D-01 -0.195845D-01  0.480471D+00
     10 -0.135587D-01 -0.688775D-02 -0.240560D-02 -0.546465D-02  0.207954D+00
     11  0.128986D-01 -0.178782D-01 -0.769987D-02 -0.157272D-01  0.576891D-01
     12  0.146744D-02  0.457522D-02  0.145678D-02  0.437135D-02  0.130370D+00
     13  0.207745D-01 -0.560542D-02 -0.361019D-02  0.104834D-01  0.499732D-02
     14 -0.185116D-01 -0.940126D-02 -0.158491D-02  0.259575D-01  0.146394D-02
     15 -0.368569D-02  0.498294D-02  0.295947D-02 -0.834008D-02  0.268226D-02
     16  0.212285D-01  0.114545D-02 -0.696881D-03 -0.500039D-03  0.875940D-03
     17 -0.983864D-01  0.444309D-02  0.111045D-01  0.251165D-02  0.367358D-03
     18 -0.178333D+00 -0.228481D-02 -0.103440D-01 -0.139605D-02 -0.531407D-03
     19  0.723966D-02 -0.124470D-01 -0.370490D-02  0.809969D-02 -0.911130D-03
     20 -0.207469D-02 -0.214854D-01 -0.205773D+00 -0.141407D+00 -0.140672D-04
     21  0.307065D-03 -0.491136D-02 -0.123371D+00 -0.126798D+00  0.276251D-03
     22 -0.101814D-01 -0.362184D-01 -0.110312D-01 -0.127749D-02  0.334552D-03
     23  0.153536D-01 -0.421581D-02 -0.434473D-01  0.523521D-01 -0.308927D-05
     24 -0.386218D-02  0.940079D-02  0.438943D-01 -0.277114D+00 -0.152795D-03
     25 -0.957347D-01  0.997067D-02  0.477435D-01  0.552603D-01 -0.500495D-02
     26 -0.114689D+00 -0.113407D-01 -0.309507D-01  0.185966D-01  0.169767D-02
     27 -0.104504D+00  0.167297D-01  0.750887D-01  0.322777D-01  0.310449D-02
     28  0.797252D-02 -0.225215D-01  0.361407D-02  0.203613D-02 -0.125545D-02
     29  0.151378D-01  0.461038D-02 -0.112350D-02 -0.115548D-01 -0.686534D-03
     30  0.499666D-02  0.155602D-02 -0.160229D-01 -0.671833D-02 -0.943006D-03
     31  0.705387D-03 -0.140394D-03 -0.194239D-02 -0.223969D-02 -0.336908D-03
     32 -0.104601D-02  0.866013D-03 -0.179634D-03  0.579176D-04 -0.129860D-03
     33  0.782313D-03 -0.329616D-03  0.493029D-04 -0.332200D-03  0.183503D-03
               11            12            13            14            15 
     11  0.572545D-01
     12  0.477137D-01  0.157854D+00
     13 -0.176748D-02 -0.208490D-01  0.684319D-01
     14  0.405008D-03 -0.796941D-02 -0.115105D-02  0.410020D-01
     15 -0.245419D-02 -0.218388D-01 -0.750437D-01  0.162642D-01  0.315706D+00
     16 -0.494662D-03  0.802068D-03 -0.297015D-02  0.386472D-02  0.449323D-03
     17  0.423470D-03  0.154641D-04 -0.634724D-03 -0.637665D-03  0.107536D-03
     18  0.101436D-02  0.418826D-03  0.177912D-02 -0.210042D-02  0.421073D-03
     19 -0.369957D-02  0.600645D-03  0.797481D-03  0.134992D-02 -0.134873D-02
     20 -0.250043D-02  0.684430D-03 -0.302468D-03  0.156601D-02 -0.598547D-04
     21  0.782302D-03  0.770169D-04  0.677565D-03  0.874937D-03  0.812981D-03
     22  0.133732D-02  0.331077D-03 -0.162355D-02 -0.499197D-02  0.190744D-02
     23  0.760512D-03  0.352167D-03  0.409112D-04 -0.216978D-02  0.213052D-03
     24 -0.388333D-03  0.782012D-03  0.183321D-03  0.121641D-02  0.409217D-03
     25  0.340795D-02 -0.691971D-04  0.987617D-03 -0.164971D-02 -0.891919D-03
     26 -0.118901D-02  0.522354D-04 -0.449071D-04 -0.912204D-03  0.424630D-03
     27  0.113506D-03  0.440277D-04 -0.175025D-03 -0.270298D-03 -0.954519D-03
     28  0.145388D-02  0.129398D-03 -0.180366D-03 -0.725567D-03 -0.307643D-03
     29  0.800946D-03  0.188034D-04  0.198333D-03 -0.148673D-03 -0.272165D-03
     30 -0.897574D-03  0.441501D-03 -0.912828D-04  0.613172D-03  0.786335D-03
     31  0.136670D-03  0.202055D-03 -0.333530D-04  0.106199D-03 -0.426503D-04
     32  0.178091D-03  0.475853D-05  0.102212D-03  0.304287D-04  0.408429D-04
     33 -0.167993D-03  0.000000D+00 -0.136493D-03  0.889508D-04 -0.189473D-04
               16            17            18            19            20 
     16  0.492027D-01
     17 -0.215396D-01  0.129844D+00
     18 -0.269249D-01  0.134887D+00  0.186533D+00
     19 -0.324084D-03 -0.262826D-02  0.164954D-02  0.333536D-01
     20 -0.726462D-04  0.375477D-02 -0.216319D-02  0.172986D-01  0.222055D+00
     21 -0.224710D-04 -0.106448D-02  0.140522D-02  0.978124D-02  0.135624D+00
     22  0.167366D-03  0.727139D-03 -0.493272D-03  0.214461D-02 -0.875115D-03
     23  0.122495D-03 -0.563690D-03  0.101204D-04  0.349034D-03  0.366304D-02
     24  0.502422D-04  0.546471D-03 -0.458115D-03  0.144701D-02 -0.850940D-03
     25  0.467309D-02 -0.196730D-01  0.111387D-01 -0.219091D-01  0.213972D-01
     26 -0.157222D-01 -0.160416D-01 -0.183169D-01  0.191475D-01 -0.116477D-01
     27 -0.182593D-01 -0.446170D-01 -0.400654D-03 -0.177637D-01  0.196638D-01
     28  0.129522D-02 -0.207115D-02 -0.305791D-02 -0.431173D-03  0.897108D-03
     29  0.318977D-02  0.678105D-03  0.569248D-02  0.138908D-02 -0.559012D-03
     30  0.230038D-02  0.110750D-01 -0.132706D-02  0.403645D-02 -0.514315D-02
     31  0.377253D-03  0.100600D-02  0.343733D-03  0.410151D-04 -0.327851D-03
     32  0.142885D-03  0.116698D-02 -0.835944D-03  0.440390D-03 -0.622983D-03
     33  0.330415D-03 -0.148438D-03  0.779161D-03 -0.271375D-03  0.222392D-03
               21            22            23            24            25 
     21  0.147662D+00
     22 -0.210278D-02  0.337365D-01
     23 -0.231377D-01  0.554147D-02  0.635498D-01
     24 -0.237569D-01 -0.840674D-02 -0.568104D-01  0.309219D+00
     25 -0.826331D-02  0.110641D-01 -0.719424D-02 -0.741163D-03  0.426883D+00
     26  0.639910D-02  0.566143D-02 -0.309565D-02  0.464786D-02  0.114339D+00
     27 -0.427523D-02 -0.398289D-02 -0.571747D-03 -0.148166D-02 -0.629077D-01
     28 -0.845840D-03 -0.123660D-02  0.117068D-03 -0.827113D-03 -0.200031D+00
     29  0.581342D-03 -0.266006D-02  0.114894D-02 -0.812806D-03  0.173038D-01
     30  0.213749D-02  0.175182D-02  0.101559D-03  0.145959D-02  0.110944D+00
     31  0.177466D-03 -0.241024D-03  0.414213D-04  0.443631D-04 -0.312631D-01
     32  0.138027D-03  0.423325D-03 -0.179756D-03  0.276208D-03 -0.492561D-02
     33 -0.260151D-04 -0.212230D-03 -0.463719D-04 -0.189755D-03  0.931547D-02
               26            27            28            29            30 
     26  0.220956D+00
     27  0.104490D+00  0.167701D+00
     28  0.474524D-02  0.109387D+00  0.461518D+00
     29 -0.465496D-01 -0.272358D-01  0.131680D+00  0.166304D+00
     30 -0.177139D-01 -0.101228D+00  0.419071D-01  0.160351D+00  0.268307D+00
     31 -0.139900D-01 -0.675526D-02 -0.184277D+00 -0.124193D+00 -0.131478D+00
     32  0.127880D-02  0.109178D-01 -0.134856D+00 -0.125638D+00 -0.134692D+00
     33  0.126254D-01  0.130364D-01 -0.151170D+00 -0.138046D+00 -0.172253D+00
               31            32            33 
     31  0.227201D+00
     32  0.140972D+00  0.122460D+00
     33  0.139252D+00  0.125680D+00  0.157378D+00
 FormGI is forming the generalized inverse of G from B-inverse, IUseBI=4.
 Leave Link  716 at Wed May 27 04:23:54 2026, MaxMem=    33554432 cpu:         0.0
 (Enter D:\software\G09W\l103.exe)

 GradGradGradGradGradGradGradGradGradGradGradGradGradGradGradGradGradGrad
 Berny optimization.
 Red2BG is reusing G-inverse.
 Internal  Forces:  Max     0.000038146 RMS     0.000015930
 Search for a saddle point.
 Step number   1 out of a maximum of   61
 All quantities printed in internal units (Hartrees-Bohrs-Radians)
 Swapping is turned off.
 Second derivative matrix not updated -- analytic derivatives used.
 ITU=  0
     Eigenvalues ---   -0.08188   0.01093   0.01275   0.01756   0.02283
     Eigenvalues ---    0.02490   0.02987   0.03292   0.04364   0.04495
     Eigenvalues ---    0.04989   0.05161   0.06642   0.09458   0.11197
     Eigenvalues ---    0.14417   0.16160   0.25014   0.29577   0.31090
     Eigenvalues ---    0.31410   0.32727   0.33078   0.33942   0.35531
     Eigenvalues ---    0.41473   0.46239
 Eigenvectors required to have negative eigenvalues:
                          R5        R10       D4        A8        D19
   1                    0.46430  -0.41875  -0.26877   0.26667  -0.24073
                          D18       A16       D10       D2        A7
   1                    0.20899   0.20690   0.17464  -0.17255  -0.17095
 RFO step:  Lambda0=5.542556861D-08 Lambda=-5.67137023D-08.
 Linear search not attempted -- option 19 set.
 Iteration  1 RMS(Cart)=  0.00017935 RMS(Int)=  0.00000004
 Iteration  2 RMS(Cart)=  0.00000003 RMS(Int)=  0.00000002
 ITry= 1 IFail=0 DXMaxC= 5.01D-04 DCOld= 1.00D+10 DXMaxT= 3.00D-01 DXLimC= 3.00D+00 Rises=F
 Variable       Old X    -DE/DX   Delta X   Delta X   Delta X     New X
                                 (Linear)    (Quad)   (Total)
    R1        2.78515   0.00003   0.00000   0.00007   0.00007   2.78522
    R2        2.85930   0.00003   0.00000   0.00019   0.00019   2.85949
    R3        2.04505   0.00000   0.00000   0.00001   0.00001   2.04505
    R4        2.04303   0.00000   0.00000   0.00000   0.00000   2.04303
    R5        3.25228  -0.00002   0.00000   0.00044   0.00044   3.25272
    R6        2.06300   0.00002   0.00000   0.00003   0.00003   2.06303
    R7        2.65321   0.00004   0.00000   0.00006   0.00006   2.65327
    R8        2.04169   0.00001   0.00000   0.00005   0.00005   2.04174
    R9        2.05193  -0.00003   0.00000  -0.00013  -0.00013   2.05180
   R10        3.36786   0.00003   0.00000  -0.00047  -0.00047   3.36739
   R11        2.62523   0.00003   0.00000   0.00010   0.00010   2.62533
   R12        1.82279   0.00000   0.00000  -0.00001  -0.00001   1.82278
    A1        2.02832   0.00000   0.00000  -0.00002  -0.00002   2.02830
    A2        2.06010   0.00002   0.00000   0.00004   0.00004   2.06014
    A3        2.07682  -0.00002   0.00000  -0.00005  -0.00005   2.07678
    A4        1.98630   0.00003   0.00000   0.00002   0.00002   1.98631
    A5        1.97507  -0.00001   0.00000  -0.00005  -0.00005   1.97501
    A6        2.11702   0.00001   0.00000   0.00029   0.00029   2.11731
    A7        1.88904   0.00000   0.00000  -0.00023  -0.00023   1.88881
    A8        2.19448  -0.00002   0.00000   0.00008   0.00008   2.19456
    A9        2.22134  -0.00001   0.00000  -0.00017  -0.00017   2.22117
   A10        2.05333  -0.00003   0.00000  -0.00035  -0.00035   2.05298
   A11        2.04056   0.00001   0.00000   0.00003   0.00003   2.04058
   A12        1.56575   0.00001   0.00000  -0.00001  -0.00001   1.56574
   A13        2.40822  -0.00001   0.00000  -0.00005  -0.00005   2.40817
   A14        1.85172   0.00000   0.00000   0.00007   0.00007   1.85179
   A15        1.95974   0.00001   0.00000   0.00017   0.00017   1.95991
   A16        1.69633  -0.00002   0.00000   0.00015   0.00015   1.69649
   A17        2.09214   0.00001   0.00000   0.00000   0.00000   2.09214
   A18        1.96875  -0.00001   0.00000  -0.00002  -0.00002   1.96873
   A19        2.10355  -0.00002   0.00000   0.00004   0.00004   2.10358
   A20        1.89048   0.00001   0.00000   0.00003   0.00003   1.89051
    D1       -0.01736   0.00000   0.00000   0.00005   0.00005  -0.01732
    D2        2.79561   0.00001   0.00000  -0.00030  -0.00030   2.79531
    D3        2.41508   0.00001   0.00000  -0.00002  -0.00002   2.41505
    D4       -1.05513   0.00001   0.00000  -0.00037  -0.00037  -1.05550
    D5        2.08103   0.00001   0.00000  -0.00016  -0.00016   2.08087
    D6       -0.33184   0.00001   0.00000  -0.00001  -0.00001  -0.33186
    D7       -2.49220  -0.00001   0.00000  -0.00002  -0.00002  -2.49222
    D8       -0.31693   0.00000   0.00000  -0.00003  -0.00003  -0.31696
    D9       -2.72980   0.00000   0.00000   0.00011   0.00011  -2.72969
   D10        1.39303  -0.00002   0.00000   0.00011   0.00011   1.39314
   D11       -2.80599   0.00001   0.00000  -0.00032  -0.00032  -2.80630
   D12       -0.09220   0.00001   0.00000   0.00034   0.00034  -0.09186
   D13       -2.69533  -0.00001   0.00000   0.00003   0.00003  -2.69530
   D14        0.09236   0.00000   0.00000  -0.00023  -0.00023   0.09213
   D15        2.42825   0.00001   0.00000   0.00000   0.00000   2.42826
   D16       -1.79815  -0.00001   0.00000  -0.00034  -0.00034  -1.79850
   D17        0.31162  -0.00001   0.00000  -0.00002  -0.00002   0.31160
   D18       -3.04300  -0.00002   0.00000   0.00004   0.00004  -3.04297
   D19        1.97626   0.00001   0.00000  -0.00032  -0.00032   1.97595
         Item               Value     Threshold  Converged?
 Maximum Force            0.000038     0.000450     YES
 RMS     Force            0.000016     0.000300     YES
 Maximum Displacement     0.000501     0.001800     YES
 RMS     Displacement     0.000179     0.001200     YES
 Predicted change in Energy=-6.440481D-10
 Optimization completed.
    -- Stationary point found.
                           ----------------------------
                           !   Optimized Parameters   !
                           ! (Angstroms and Degrees)  !
 --------------------------                            --------------------------
 ! Name  Definition              Value          Derivative Info.                !
 --------------------------------------------------------------------------------
 ! R1    R(1,2)                  1.4738         -DE/DX =    0.0                 !
 ! R2    R(1,3)                  1.5131         -DE/DX =    0.0                 !
 ! R3    R(1,4)                  1.0822         -DE/DX =    0.0                 !
 ! R4    R(1,5)                  1.0811         -DE/DX =    0.0                 !
 ! R5    R(2,3)                  1.721          -DE/DX =    0.0                 !
 ! R6    R(2,6)                  1.0917         -DE/DX =    0.0                 !
 ! R7    R(2,9)                  1.404          -DE/DX =    0.0                 !
 ! R8    R(3,7)                  1.0804         -DE/DX =    0.0                 !
 ! R9    R(3,8)                  1.0858         -DE/DX =    0.0                 !
 ! R10   R(3,9)                  1.7822         -DE/DX =    0.0                 !
 ! R11   R(9,10)                 1.3892         -DE/DX =    0.0                 !
 ! R12   R(10,11)                0.9646         -DE/DX =    0.0                 !
 ! A1    A(2,1,4)              116.2144         -DE/DX =    0.0                 !
 ! A2    A(2,1,5)              118.0349         -DE/DX =    0.0                 !
 ! A3    A(3,1,4)              118.9931         -DE/DX =    0.0                 !
 ! A4    A(3,1,5)              113.8064         -DE/DX =    0.0                 !
 ! A5    A(4,1,5)              113.1631         -DE/DX =    0.0                 !
 ! A6    A(1,2,6)              121.2964         -DE/DX =    0.0                 !
 ! A7    A(1,2,9)              108.2339         -DE/DX =    0.0                 !
 ! A8    A(3,2,6)              125.7342         -DE/DX =    0.0                 !
 ! A9    A(6,2,9)              127.2732         -DE/DX =    0.0                 !
 ! A10   A(1,3,7)              117.6473         -DE/DX =    0.0                 !
 ! A11   A(1,3,8)              116.9152         -DE/DX =    0.0                 !
 ! A12   A(1,3,9)               89.711          -DE/DX =    0.0                 !
 ! A13   A(2,3,7)              137.9806         -DE/DX =    0.0                 !
 ! A14   A(2,3,8)              106.0957         -DE/DX =    0.0                 !
 ! A15   A(7,3,8)              112.2849         -DE/DX =    0.0                 !
 ! A16   A(7,3,9)               97.1928         -DE/DX =    0.0                 !
 ! A17   A(8,3,9)              119.8707         -DE/DX =    0.0                 !
 ! A18   A(2,9,10)             112.8013         -DE/DX =    0.0                 !
 ! A19   A(3,9,10)             120.5244         -DE/DX =    0.0                 !
 ! A20   A(9,10,11)            108.3165         -DE/DX =    0.0                 !
 ! D1    D(4,1,2,6)             -0.9949         -DE/DX =    0.0                 !
 ! D2    D(4,1,2,9)            160.1767         -DE/DX =    0.0                 !
 ! D3    D(5,1,2,6)            138.3736         -DE/DX =    0.0                 !
 ! D4    D(5,1,2,9)            -60.4548         -DE/DX =    0.0                 !
 ! D5    D(4,1,3,7)            119.2344         -DE/DX =    0.0                 !
 ! D6    D(4,1,3,8)            -19.0133         -DE/DX =    0.0                 !
 ! D7    D(4,1,3,9)           -142.7926         -DE/DX =    0.0                 !
 ! D8    D(5,1,3,7)            -18.1585         -DE/DX =    0.0                 !
 ! D9    D(5,1,3,8)           -156.4062         -DE/DX =    0.0                 !
 ! D10   D(5,1,3,9)             79.8145         -DE/DX =    0.0                 !
 ! D11   D(6,2,3,7)           -160.7713         -DE/DX =    0.0                 !
 ! D12   D(6,2,3,8)             -5.2825         -DE/DX =    0.0                 !
 ! D13   D(1,2,9,10)          -154.4312         -DE/DX =    0.0                 !
 ! D14   D(6,2,9,10)             5.292          -DE/DX =    0.0                 !
 ! D15   D(1,3,9,10)           139.1286         -DE/DX =    0.0                 !
 ! D16   D(7,3,9,10)          -103.0267         -DE/DX =    0.0                 !
 ! D17   D(8,3,9,10)            17.8546         -DE/DX =    0.0                 !
 ! D18   D(2,9,10,11)         -174.3513         -DE/DX =    0.0                 !
 ! D19   D(3,9,10,11)          113.2315         -DE/DX =    0.0                 !
 --------------------------------------------------------------------------------
 GradGradGradGradGradGradGradGradGradGradGradGradGradGradGradGradGradGrad

 Largest change from initial coordinates is atom    1       0.000 Angstoms.
 Leave Link  103 at Wed May 27 04:23:54 2026, MaxMem=    33554432 cpu:         0.0
 (Enter D:\software\G09W\l202.exe)
                          Input orientation:                          
 ---------------------------------------------------------------------
 Center     Atomic      Atomic             Coordinates (Angstroms)
 Number     Number       Type             X           Y           Z
 ---------------------------------------------------------------------
      1          6           0       -1.635843   -0.218087    0.180898
      2          6           0       -0.312534   -0.787684   -0.129917
      3          6           0       -0.692932    0.887018   -0.242261
      4          1           0       -2.444741   -0.499422   -0.480671
      5          1           0       -1.934541   -0.163413    1.218504
      6          1           0       -0.171383   -1.467360   -0.972479
      7          1           0       -0.638228    1.766267    0.383216
      8          1           0       -0.665529    1.131666   -1.299820
      9          6           0        0.663963    0.000901    0.499253
     10          8           0        1.897646   -0.061042   -0.136438
     11          1           0        2.537333    0.427706    0.394917
 ---------------------------------------------------------------------
                    Distance matrix (angstroms):
                    1          2          3          4          5
     1  C    0.000000
     2  C    1.473836   0.000000
     3  C    1.513077   1.721032   0.000000
     4  H    1.082192   2.180007   2.246751   0.000000
     5  H    1.081127   2.199741   2.186054   1.805658   0.000000
     6  H    2.244015   1.091693   2.519589   2.519313   3.099905
     7  H    2.230208   2.625271   1.080413   3.023762   2.470182
     8  H    2.226178   2.275342   1.085834   2.548931   3.103156
     9  C    2.332041   1.404018   1.782193   3.297668   2.701212
    10  O    3.551184   2.326574   2.760636   4.378013   4.065957
    11  H    4.228268   3.142350   3.324391   5.142692   4.585343
                    6          7          8          9         10
     6  H    0.000000
     7  H    3.537258   0.000000
     8  H    2.665759   1.798909   0.000000
     9  C    2.240444   2.196744   2.506560   0.000000
    10  O    2.637722   3.168557   3.057103   1.389213   0.000000
    11  H    3.577456   3.446167   3.691344   1.924205   0.964579
                   11
    11  H    0.000000
 Stoichiometry    C4H6O
 Framework group  C1[X(C4H6O)]
 Deg. of freedom    27
 Full point group                 C1      NOp   1
 RotChk:  IX=0 Diff= 1.15D-15
 Largest Abelian subgroup         C1      NOp   1
 Largest concise Abelian subgroup C1      NOp   1
                         Standard orientation:                         
 ---------------------------------------------------------------------
 Center     Atomic      Atomic             Coordinates (Angstroms)
 Number     Number       Type             X           Y           Z
 ---------------------------------------------------------------------
      1          6           0        1.635843   -0.218087   -0.180898
      2          6           0        0.312534   -0.787684    0.129917
      3          6           0        0.692932    0.887018    0.242261
      4          1           0        2.444741   -0.499422    0.480671
      5          1           0        1.934541   -0.163413   -1.218504
      6          1           0        0.171383   -1.467360    0.972479
      7          1           0        0.638228    1.766267   -0.383216
      8          1           0        0.665529    1.131666    1.299820
      9          6           0       -0.663963    0.000901   -0.499253
     10          8           0       -1.897646   -0.061042    0.136438
     11          1           0       -2.537333    0.427706   -0.394917
 ---------------------------------------------------------------------
 Rotational constants (GHZ):     14.9421096      3.9425489      3.5202290
 Leave Link  202 at Wed May 27 04:23:54 2026, MaxMem=    33554432 cpu:         0.0
 (Enter D:\software\G09W\l9999.exe)
 1|1|UNPC-STARDUST-AIR|FTS|RExternal='python3 D:\work\bbs\gau_xtb\gau_x
 tb.py'|ZDO|C4H6O1|STARDUST-AIR|27-May-2026|0||#p opt=(calcfc,ts,noeige
 n,nomicro) external='python3 D:\work\bbs\gau_xtb\gau_xtb.py'||Title Ca
 rd Required||0,1|C,-1.635843,-0.218087,0.180898|C,-0.312534,-0.787684,
 -0.129917|C,-0.692932,0.887018,-0.242261|H,-2.444741,-0.499422,-0.4806
 71|H,-1.934541,-0.163413,1.218504|H,-0.171383,-1.46736,-0.972479|H,-0.
 638228,1.766267,0.383216|H,-0.665529,1.131666,-1.29982|C,0.663963,0.00
 0901,0.499253|O,1.897646,-0.061042,-0.136438|H,2.537333,0.427706,0.394
 917||Version=IA32W-G09RevD.01|HF=-15.5282218|RMSD=0.000e+000|RMSF=3.29
 1e-005|Dipole=0.,0.,0.|PG=C01 [X(C4H6O1)]||@


 IF I AM NOT FOR MYSELF, WHO WILL BE?
 BUT IF I AM ONLY FOR MYSELF, WHAT AM I?
 THOUGH A SEEKER SINCE MY BIRTH,
 HERE IS ALL I'VE LEARNED ON EARTH,
 THIS IS THE GIST OF WHAT I KNOW:
 GIVE ADVICE AND BUY A FOE.

 PRESSED FOR RULES AND VERITIES,
 ALL I RECOLLECT ARE THESE:
 FEED A COLD TO STARVE A FEVER,
 ARGUE WITH NO TRUE-BELIEVER.
 THINK-TOO-LONG IS NEVER-ACT,
 SCRATCH A MYTH AND FIND A FACT.

 STITCH IN TIME SAVES TWENTY STITCHES,
 GIVE THE RICH TO PLEASE THEM, RICHES.
 GIVE TO LOVE YOU HEARTH AND HALL,
 BUT DO NOT GIVE ADVICE AT ALL.

                                  -- HILLEL
 Job cpu time:       0 days  0 hours  0 minutes  1.0 seconds.
 File lengths (MBytes):  RWF=      5 Int=      0 D2E=      0 Chk=      1 Scr=      1
 Normal termination of Gaussian 09 at Wed May 27 04:23:54 2026.
 Entering Link 1 = D:\software\G09W\l1.exe PID=     42608.
  
 Copyright (c) 1988,1990,1992,1993,1995,1998,2003,2009,2013,
            Gaussian, Inc.  All Rights Reserved.
  
 This is part of the Gaussian(R) 09 program.  It is based on
 the Gaussian(R) 03 system (copyright 2003, Gaussian, Inc.),
 the Gaussian(R) 98 system (copyright 1998, Gaussian, Inc.),
 the Gaussian(R) 94 system (copyright 1995, Gaussian, Inc.),
 the Gaussian 92(TM) system (copyright 1992, Gaussian, Inc.),
 the Gaussian 90(TM) system (copyright 1990, Gaussian, Inc.),
 the Gaussian 88(TM) system (copyright 1988, Gaussian, Inc.),
 the Gaussian 86(TM) system (copyright 1986, Carnegie Mellon
 University), and the Gaussian 82(TM) system (copyright 1983,
 Carnegie Mellon University). Gaussian is a federally registered
 trademark of Gaussian, Inc.
  
 This software contains proprietary and confidential information,
 including trade secrets, belonging to Gaussian, Inc.
  
 This software is provided under written license and may be
 used, copied, transmitted, or stored only in accord with that
 written license.
  
 The following legend is applicable only to US Government
 contracts under FAR:
  
                    RESTRICTED RIGHTS LEGEND
  
 Use, reproduction and disclosure by the US Government is
 subject to restrictions as set forth in subparagraphs (a)
 and (c) of the Commercial Computer Software - Restricted
 Rights clause in FAR 52.227-19.
  
 Gaussian, Inc.
 340 Quinnipiac St., Bldg. 40, Wallingford CT 06492
  
  
 ---------------------------------------------------------------
 Warning -- This program may not be used in any manner that
 competes with the business of Gaussian, Inc. or will provide
 assistance to any competitor of Gaussian, Inc.  The licensee
 of this program is prohibited from giving any competitor of
 Gaussian, Inc. access to this program.  By using this program,
 the user acknowledges that Gaussian, Inc. is engaged in the
 business of creating and licensing software in the field of
 computational chemistry and represents and warrants to the
 licensee that it is not a competitor of Gaussian, Inc. and that
 it will not use this program in any manner prohibited above.
 ---------------------------------------------------------------
  

 Cite this work as:
 Gaussian 09, Revision D.01,
 M. J. Frisch, G. W. Trucks, H. B. Schlegel, G. E. Scuseria, 
 M. A. Robb, J. R. Cheeseman, G. Scalmani, V. Barone, B. Mennucci, 
 G. A. Petersson, H. Nakatsuji, M. Caricato, X. Li, H. P. Hratchian, 
 A. F. Izmaylov, J. Bloino, G. Zheng, J. L. Sonnenberg, M. Hada, 
 M. Ehara, K. Toyota, R. Fukuda, J. Hasegawa, M. Ishida, T. Nakajima, 
 Y. Honda, O. Kitao, H. Nakai, T. Vreven, J. A. Montgomery, Jr., 
 J. E. Peralta, F. Ogliaro, M. Bearpark, J. J. Heyd, E. Brothers, 
 K. N. Kudin, V. N. Staroverov, T. Keith, R. Kobayashi, J. Normand, 
 K. Raghavachari, A. Rendell, J. C. Burant, S. S. Iyengar, J. Tomasi, 
 M. Cossi, N. Rega, J. M. Millam, M. Klene, J. E. Knox, J. B. Cross, 
 V. Bakken, C. Adamo, J. Jaramillo, R. Gomperts, R. E. Stratmann, 
 O. Yazyev, A. J. Austin, R. Cammi, C. Pomelli, J. W. Ochterski, 
 R. L. Martin, K. Morokuma, V. G. Zakrzewski, G. A. Voth, 
 P. Salvador, J. J. Dannenberg, S. Dapprich, A. D. Daniels, 
 O. Farkas, J. B. Foresman, J. V. Ortiz, J. Cioslowski, 
 and D. J. Fox, Gaussian, Inc., Wallingford CT, 2013.
 
 ******************************************
 Gaussian 09:  IA32W-G09RevD.01 24-Apr-2013
                27-May-2026 
 ******************************************
 %oldchk=D:\work\bbs\gau_xtb\TS.chk
 %chk=D:\work\bbs\gau_xtb\freq.chk
 %nproc=1
 Will use up to    1 processors via shared memory.
 Copying data from "D:\work\bbs\gau_xtb\TS.chk" to current chk file "D:\work\bbs\gau_xtb\freq.chk".
 ----------------------------------------------------------------------
 #P freq geom=allcheck external='python3 D:\work\bbs\gau_xtb\gau_xtb.py
 '
 ----------------------------------------------------------------------
 1/10=4,18=10,29=7,30=1,38=1/1,3;
 2/12=2,40=1/2;
 3/11=9,14=-4,16=1,25=1,30=1,41=9900000,43=2,71=2,140=1/1;
 4/20=17,22=2,24=3,113=1,114=1/2;
 6/7=2,8=2,9=2,10=2/1;
 7/8=1,25=1,44=-1/16;
 1/10=4,18=10,30=1/3;
 99//99;
 Leave Link    1 at Wed May 27 04:23:54 2026, MaxMem=    33554432 cpu:         0.0
 (Enter D:\software\G09W\l101.exe)
 Structure from the checkpoint file:  "D:\work\bbs\gau_xtb\freq.chk"
 -------------------
 Title Card Required
 -------------------
 Charge =  0 Multiplicity = 1
 Redundant internal coordinates found in file.
 C,0,-1.635843,-0.218087,0.180898
 C,0,-0.312534,-0.787684,-0.129917
 C,0,-0.692932,0.887018,-0.242261
 H,0,-2.444741,-0.499422,-0.480671
 H,0,-1.934541,-0.163413,1.218504
 H,0,-0.171383,-1.46736,-0.972479
 H,0,-0.638228,1.766267,0.383216
 H,0,-0.665529,1.131666,-1.29982
 C,0,0.663963,0.000901,0.499253
 O,0,1.897646,-0.061042,-0.136438
 H,0,2.537333,0.427706,0.394917
 Recover connectivity data from disk.
 NAtoms=     11 NQM=       11 NQMF=       0 NMMI=      0 NMMIF=      0
                NMic=       0 NMicF=      0.
                    Isotopes and Nuclear Properties:
 (Nuclear quadrupole moments (NQMom) in fm**2, nuclear magnetic moments (NMagM)
  in nuclear magnetons)

  Atom         1           2           3           4           5           6           7           8           9          10
 IAtWgt=          12          12          12           1           1           1           1           1          12          16
 AtmWgt=  12.0000000  12.0000000  12.0000000   1.0078250   1.0078250   1.0078250   1.0078250   1.0078250  12.0000000  15.9949146
 NucSpn=           0           0           0           1           1           1           1           1           0           0
 AtZEff=  -3.6000000  -3.6000000  -3.6000000  -1.0000000  -1.0000000  -1.0000000  -1.0000000  -1.0000000  -3.6000000  -5.6000000
 NQMom=    0.0000000   0.0000000   0.0000000   0.0000000   0.0000000   0.0000000   0.0000000   0.0000000   0.0000000   0.0000000
 NMagM=    0.0000000   0.0000000   0.0000000   2.7928460   2.7928460   2.7928460   2.7928460   2.7928460   0.0000000   0.0000000
 AtZNuc=   6.0000000   6.0000000   6.0000000   1.0000000   1.0000000   1.0000000   1.0000000   1.0000000   6.0000000   8.0000000

  Atom        11
 IAtWgt=           1
 AtmWgt=   1.0078250
 NucSpn=           1
 AtZEff=  -1.0000000
 NQMom=    0.0000000
 NMagM=    2.7928460
 AtZNuc=   1.0000000
 Leave Link  101 at Wed May 27 04:23:54 2026, MaxMem=    33554432 cpu:         0.0
 (Enter D:\software\G09W\l103.exe)

 GradGradGradGradGradGradGradGradGradGradGradGradGradGradGradGradGradGrad
 Berny optimization.
 Initialization pass.
 Trust Radius=3.00D-01 FncErr=1.00D-07 GrdErr=1.00D-07
 Number of steps in this run=      2 maximum allowed number of steps=      2.
 GradGradGradGradGradGradGradGradGradGradGradGradGradGradGradGradGradGrad

 Leave Link  103 at Wed May 27 04:23:54 2026, MaxMem=    33554432 cpu:         0.0
 (Enter D:\software\G09W\l202.exe)
                          Input orientation:                          
 ---------------------------------------------------------------------
 Center     Atomic      Atomic             Coordinates (Angstroms)
 Number     Number       Type             X           Y           Z
 ---------------------------------------------------------------------
      1          6           0       -1.635843   -0.218087    0.180898
      2          6           0       -0.312534   -0.787684   -0.129917
      3          6           0       -0.692932    0.887018   -0.242261
      4          1           0       -2.444741   -0.499422   -0.480671
      5          1           0       -1.934541   -0.163413    1.218504
      6          1           0       -0.171383   -1.467360   -0.972479
      7          1           0       -0.638228    1.766267    0.383216
      8          1           0       -0.665529    1.131666   -1.299820
      9          6           0        0.663963    0.000901    0.499253
     10          8           0        1.897646   -0.061042   -0.136438
     11          1           0        2.537333    0.427706    0.394917
 ---------------------------------------------------------------------
                    Distance matrix (angstroms):
                    1          2          3          4          5
     1  C    0.000000
     2  C    1.473836   0.000000
     3  C    1.513077   1.721032   0.000000
     4  H    1.082192   2.180007   2.246751   0.000000
     5  H    1.081127   2.199741   2.186054   1.805658   0.000000
     6  H    2.244015   1.091693   2.519589   2.519313   3.099905
     7  H    2.230208   2.625271   1.080413   3.023762   2.470182
     8  H    2.226178   2.275342   1.085834   2.548931   3.103156
     9  C    2.332041   1.404018   1.782193   3.297668   2.701212
    10  O    3.551184   2.326574   2.760636   4.378013   4.065957
    11  H    4.228268   3.142350   3.324391   5.142692   4.585343
                    6          7          8          9         10
     6  H    0.000000
     7  H    3.537258   0.000000
     8  H    2.665759   1.798909   0.000000
     9  C    2.240444   2.196744   2.506560   0.000000
    10  O    2.637722   3.168557   3.057103   1.389213   0.000000
    11  H    3.577456   3.446167   3.691344   1.924205   0.964579
                   11
    11  H    0.000000
 Stoichiometry    C4H6O
 Framework group  C1[X(C4H6O)]
 Deg. of freedom    27
 Full point group                 C1      NOp   1
 RotChk:  IX=0 Diff= 5.70D-16
 Largest Abelian subgroup         C1      NOp   1
 Largest concise Abelian subgroup C1      NOp   1
                         Standard orientation:                         
 ---------------------------------------------------------------------
 Center     Atomic      Atomic             Coordinates (Angstroms)
 Number     Number       Type             X           Y           Z
 ---------------------------------------------------------------------
      1          6           0        1.635843   -0.218087   -0.180898
      2          6           0        0.312534   -0.787684    0.129917
      3          6           0        0.692932    0.887018    0.242261
      4          1           0        2.444741   -0.499422    0.480671
      5          1           0        1.934541   -0.163413   -1.218504
      6          1           0        0.171383   -1.467360    0.972479
      7          1           0        0.638228    1.766267   -0.383216
      8          1           0        0.665529    1.131666    1.299820
      9          6           0       -0.663963    0.000901   -0.499253
     10          8           0       -1.897646   -0.061042    0.136438
     11          1           0       -2.537333    0.427706   -0.394917
 ---------------------------------------------------------------------
 Rotational constants (GHZ):     14.9421096      3.9425489      3.5202290
 Leave Link  202 at Wed May 27 04:23:54 2026, MaxMem=    33554432 cpu:         0.0
 (Enter D:\software\G09W\l301.exe)
 Standard basis: STO-3G (5D, 7F)
 Ernie: Thresh=  0.10000D-02 Tol=  0.10000D-05 Strict=F.
 There are    31 symmetry adapted cartesian basis functions of A   symmetry.
 There are    31 symmetry adapted basis functions of A   symmetry.
    31 basis functions,    93 primitive gaussians,    31 cartesian basis functions
    19 alpha electrons       19 beta electrons
       nuclear repulsion energy       167.2079264482 Hartrees.
 IExCor=    0 DFT=F Ex=HF Corr=None ExCW=0 ScaHFX=  1.000000
 ScaDFX=  1.000000  1.000000  1.000000  1.000000 ScalE2=  1.000000  1.000000
 IRadAn=      0 IRanWt=     -1 IRanGd=            0 ICorTp=0 IEmpDi=  4
 NAtoms=   11 NActive=   11 NUniq=   11 SFac= 1.00D+00 NAtFMM=   60 NAOKFM=F Big=F
 Integral buffers will be    262144 words long.
 Raffenetti 1 integral format.
 Two-electron integral symmetry is turned on.
 Leave Link  301 at Wed May 27 04:23:54 2026, MaxMem=    33554432 cpu:         0.0
 (Enter D:\software\G09W\l402.exe)
 External calculation of energy, first and second derivatives.
 Running external command "python3 D:\work\bbs\gau_xtb\gau_xtb.py R"
         input file       "D:\software\G09W\Scratch\gxx.EIn"
         output file      "D:\software\G09W\Scratch\gxx.EOu"
         message file     "D:\software\G09W\Scratch\gxx.EMs"
         fchk file        "D:\software\G09W\Scratch\gxx.EFC"
         mat. el file     "D:\software\G09W\Scratch\gxx.EUF"
 Recovered energy= -15.5282218475     dipole=      0.000000000000      0.000000000000      0.000000000000
 Energy=    -15.5282218     NIter=   0.
 Dipole moment=       0.000000       0.000000       0.000000
 Leave Link  402 at Wed May 27 04:23:55 2026, MaxMem=    33554432 cpu:         1.0
 (Enter D:\software\G09W\l601.exe)
 Leave Link  601 at Wed May 27 04:23:55 2026, MaxMem=    33554432 cpu:         0.0
 (Enter D:\software\G09W\l716.exe)
 Dipole        = 0.00000000D+00 0.00000000D+00 0.00000000D+00
 Full mass-weighted force constant matrix:
 Low frequencies --- -731.9243   -0.0310   -0.0163   -0.0137    0.0094    0.0136
 Low frequencies ---    0.0234  244.3466  298.2210
 ******    1 imaginary frequencies (negative Signs) ****** 
 Diagonal vibrational polarizability:
        0.0000000       0.0000000       0.0000000
 Harmonic frequencies (cm**-1), IR intensities (KM/Mole), Raman scattering
 activities (A**4/AMU), depolarization ratios for plane and unpolarized
 incident light, reduced masses (AMU), force constants (mDyne/A),
 and normal coordinates:
                      1                      2                      3
                      A                      A                      A
 Frequencies --   -731.9243               244.3466               298.2210
 Red. masses --      3.1817                 2.9017                 4.1636
 Frc consts  --      1.0042                 0.1021                 0.2182
 IR Inten    --      0.0000                 0.0000                 0.0000
  Atom  AN      X      Y      Z        X      Y      Z        X      Y      Z
     1   6     0.07  -0.02  -0.03     0.04  -0.02   0.18     0.02  -0.10   0.05
     2   6     0.02   0.22   0.04    -0.03  -0.02  -0.20    -0.09   0.13  -0.04
     3   6     0.09  -0.13   0.16    -0.09  -0.01  -0.09     0.26   0.13  -0.05
     4   1     0.05  -0.11  -0.06    -0.18  -0.05   0.44    -0.12  -0.29   0.15
     5   1     0.01   0.05  -0.05     0.39   0.02   0.28     0.17  -0.22   0.09
     6   1    -0.02   0.59   0.34    -0.21   0.05  -0.17    -0.23   0.01  -0.16
     7   1    -0.35  -0.33  -0.04     0.08  -0.08  -0.20     0.38   0.03  -0.19
     8   1     0.21   0.05   0.12    -0.35   0.08  -0.13     0.35   0.26  -0.09
     9   6    -0.16  -0.07  -0.24    -0.04   0.05  -0.15    -0.07   0.21   0.08
    10   8     0.00  -0.01   0.03     0.11   0.00   0.17    -0.10  -0.25  -0.03
    11   1    -0.08  -0.09   0.05    -0.06  -0.06   0.31    -0.18  -0.18   0.13
                      4                      5                      6
                      A                      A                      A
 Frequencies --    489.3773               523.8125               631.9525
 Red. masses --      2.7307                 1.2199                 4.9356
 Frc consts  --      0.3853                 0.1972                 1.1613
 IR Inten    --      0.0000                 0.0000                 0.0000
  Atom  AN      X      Y      Z        X      Y      Z        X      Y      Z
     1   6     0.15   0.07   0.04    -0.05   0.00   0.00    -0.18   0.10   0.05
     2   6     0.09  -0.03  -0.09    -0.03   0.01   0.04    -0.12  -0.12  -0.03
     3   6     0.08  -0.01  -0.02    -0.01   0.02   0.00     0.29   0.26   0.10
     4   1    -0.03   0.00   0.22    -0.01   0.03  -0.04    -0.15  -0.08  -0.04
     5   1     0.42   0.14   0.12    -0.11  -0.05  -0.02    -0.21   0.03   0.03
     6   1     0.32  -0.19  -0.16    -0.09   0.01   0.03    -0.17  -0.49  -0.34
     7   1    -0.09  -0.13  -0.16    -0.03   0.03   0.00    -0.18   0.18   0.05
     8   1     0.07   0.11  -0.06     0.01   0.03   0.00     0.13   0.13   0.10
     9   6    -0.12  -0.15   0.09     0.02  -0.01  -0.04    -0.07  -0.28  -0.15
    10   8    -0.20   0.06  -0.01     0.05  -0.07  -0.03     0.10   0.06   0.04
    11   1     0.08   0.58   0.12     0.23   0.79   0.53    -0.04  -0.26  -0.09
                      7                      8                      9
                      A                      A                      A
 Frequencies --    796.0170               859.5517               921.9626
 Red. masses --      1.0777                 1.2495                 1.6342
 Frc consts  --      0.4023                 0.5439                 0.8185
 IR Inten    --      0.0000                 0.0000                 0.0000
  Atom  AN      X      Y      Z        X      Y      Z        X      Y      Z
     1   6     0.00   0.03  -0.02     0.03   0.02   0.03    -0.02  -0.08  -0.07
     2   6    -0.03   0.00   0.01     0.01  -0.04  -0.02     0.02   0.16   0.04
     3   6     0.02  -0.03  -0.05     0.07   0.03  -0.05    -0.06   0.06   0.00
     4   1    -0.15   0.34   0.30     0.14   0.01  -0.11    -0.34  -0.49   0.15
     5   1     0.27  -0.38   0.04    -0.16   0.02  -0.02     0.34   0.02   0.05
     6   1    -0.08   0.02   0.02    -0.04   0.39   0.32     0.35  -0.16  -0.14
     7   1    -0.32   0.23   0.33     0.39   0.31   0.31     0.22   0.26   0.25
     8   1     0.37  -0.37   0.06    -0.37  -0.42   0.05    -0.22  -0.21   0.06
     9   6    -0.01   0.01   0.00     0.00  -0.03  -0.04    -0.01  -0.09   0.01
    10   8     0.01   0.00   0.00    -0.07  -0.01   0.02     0.03   0.00   0.00
    11   1    -0.02  -0.02   0.02    -0.05   0.04   0.06     0.05  -0.01  -0.03
                     10                     11                     12
                      A                      A                      A
 Frequencies --    940.1233              1019.7897              1031.0981
 Red. masses --      1.4392                 1.1696                 2.5135
 Frc consts  --      0.7494                 0.7166                 1.5744
 IR Inten    --      0.0000                 0.0000                 0.0000
  Atom  AN      X      Y      Z        X      Y      Z        X      Y      Z
     1   6     0.10  -0.01   0.03    -0.04   0.06   0.00     0.00   0.14  -0.04
     2   6     0.00   0.10   0.08    -0.03  -0.01   0.02    -0.16   0.03   0.10
     3   6    -0.02  -0.03  -0.03    -0.04  -0.06   0.00     0.15  -0.18  -0.09
     4   1     0.33   0.21  -0.16    -0.04   0.20   0.07    -0.12   0.00   0.05
     5   1    -0.24  -0.18  -0.08     0.06   0.20   0.04     0.24   0.58   0.06
     6   1    -0.26  -0.55  -0.50     0.10  -0.04   0.02    -0.06  -0.15  -0.02
     7   1     0.12   0.07   0.09     0.77   0.01   0.01    -0.06  -0.17  -0.07
     8   1    -0.12  -0.11  -0.01     0.52   0.07  -0.01    -0.57  -0.24  -0.09
     9   6     0.00  -0.02  -0.07    -0.03  -0.03  -0.04    -0.04   0.03   0.07
    10   8    -0.05   0.01   0.03     0.01   0.00   0.00     0.08  -0.01  -0.04
    11   1    -0.10  -0.03   0.07    -0.06  -0.04   0.05    -0.01  -0.04   0.03
                     13                     14                     15
                      A                      A                      A
 Frequencies --   1096.5279              1121.4225              1137.1121
 Red. masses --      1.6519                 1.9384                 1.3220
 Frc consts  --      1.1702                 1.4363                 1.0071
 IR Inten    --      0.0000                 0.0000                 0.0000
  Atom  AN      X      Y      Z        X      Y      Z        X      Y      Z
     1   6     0.06   0.11   0.09     0.01   0.04  -0.03    -0.03   0.10   0.03
     2   6    -0.02   0.04  -0.05     0.01  -0.06   0.09     0.02  -0.04   0.04
     3   6    -0.05  -0.04  -0.07    -0.02   0.00  -0.04     0.02  -0.04  -0.01
     4   1     0.03  -0.68  -0.23    -0.17  -0.53  -0.04    -0.13  -0.31  -0.01
     5   1    -0.30  -0.17  -0.03     0.25   0.47   0.06    -0.16  -0.44  -0.03
     6   1    -0.25   0.10  -0.02    -0.39  -0.04   0.01     0.62  -0.17   0.04
     7   1    -0.05   0.08   0.09    -0.20   0.07   0.06    -0.02  -0.08  -0.05
     8   1     0.37  -0.13  -0.03     0.32   0.03  -0.03    -0.07  -0.01  -0.02
     9   6    -0.07  -0.04   0.09     0.18   0.02  -0.11     0.02   0.07  -0.07
    10   8     0.06   0.00  -0.02    -0.12  -0.01   0.06    -0.02   0.01  -0.01
    11   1     0.17   0.02  -0.15    -0.10   0.01   0.08    -0.34  -0.08   0.29
                     16                     17                     18
                      A                      A                      A
 Frequencies --   1144.2287              1204.7406              1294.7302
 Red. masses --      1.4154                 2.0158                 1.7635
 Frc consts  --      1.0918                 1.7238                 1.7417
 IR Inten    --      0.0000                 0.0000                 0.0000
  Atom  AN      X      Y      Z        X      Y      Z        X      Y      Z
     1   6    -0.01   0.11  -0.09    -0.16   0.00   0.09     0.11   0.01  -0.02
     2   6     0.01   0.01  -0.01     0.05   0.11  -0.05    -0.15  -0.08   0.05
     3   6     0.01  -0.03   0.08     0.07  -0.08  -0.06    -0.03   0.04   0.02
     4   1    -0.25  -0.05   0.15    -0.14   0.14   0.10     0.22  -0.06  -0.17
     5   1     0.10  -0.57  -0.08    -0.36   0.14   0.05     0.23  -0.11   0.00
     6   1    -0.42   0.08  -0.03     0.33  -0.04  -0.13     0.40  -0.12   0.11
     7   1     0.32  -0.17  -0.15    -0.08  -0.09  -0.04     0.00   0.11   0.09
     8   1    -0.29   0.13   0.02     0.09  -0.20  -0.04     0.00   0.16   0.00
     9   6     0.06  -0.03   0.01     0.09   0.01  -0.03    -0.04   0.07  -0.09
    10   8    -0.03  -0.01   0.03    -0.06  -0.03   0.07     0.00  -0.04   0.06
    11   1     0.22   0.06  -0.19     0.53   0.16  -0.46     0.56   0.14  -0.47
                     19                     20                     21
                      A                      A                      A
 Frequencies --   1410.6777              1419.1648              1456.1437
 Red. masses --      2.9473                 1.2496                 1.2995
 Frc consts  --      3.4556                 1.4828                 1.6234
 IR Inten    --      0.0000                 0.0000                 0.0000
  Atom  AN      X      Y      Z        X      Y      Z        X      Y      Z
     1   6    -0.08   0.01  -0.01     0.01  -0.01  -0.02     0.13  -0.01  -0.04
     2   6     0.25  -0.11   0.14     0.08  -0.04   0.03    -0.05  -0.02   0.01
     3   6     0.00   0.06  -0.02     0.03  -0.06  -0.03    -0.02   0.06   0.02
     4   1    -0.07  -0.14  -0.06    -0.25  -0.03   0.27    -0.36   0.01   0.52
     5   1     0.18   0.05   0.07    -0.28   0.09  -0.08    -0.56   0.18  -0.19
     6   1    -0.31  -0.20  -0.05    -0.09  -0.04  -0.01     0.05  -0.03   0.03
     7   1     0.10  -0.20  -0.32    -0.03   0.34   0.47     0.02  -0.15  -0.24
     8   1    -0.02  -0.59   0.10    -0.13   0.59  -0.15     0.08  -0.30   0.08
     9   6    -0.22   0.13  -0.06    -0.07   0.03  -0.02     0.01   0.00  -0.01
    10   8     0.03  -0.01   0.00     0.01   0.00   0.00     0.00   0.00   0.00
    11   1     0.25   0.06  -0.22     0.07   0.01  -0.06     0.02   0.00  -0.02
                     22                     23                     24
                      A                      A                      A
 Frequencies --   2904.3643              3007.4379              3039.1915
 Red. masses --      1.0779                 1.0864                 1.0673
 Frc consts  --      5.3569                 5.7892                 5.8082
 IR Inten    --      0.0000                 0.0000                 0.0000
  Atom  AN      X      Y      Z        X      Y      Z        X      Y      Z
     1   6     0.00   0.00   0.00     0.00   0.00   0.01     0.00   0.00  -0.01
     2   6    -0.01  -0.05   0.06     0.00   0.00   0.00     0.00   0.00   0.00
     3   6     0.00   0.00   0.00     0.00   0.00  -0.08     0.01  -0.06   0.03
     4   1     0.02  -0.01   0.02    -0.04   0.01  -0.03     0.04  -0.01   0.03
     5   1    -0.01   0.00   0.02     0.02   0.00  -0.07    -0.02   0.00   0.05
     6   1     0.13   0.62  -0.77     0.00   0.00   0.00     0.00   0.01  -0.01
     7   1     0.00  -0.01   0.01     0.01  -0.15   0.06    -0.06   0.77  -0.59
     8   1     0.00   0.00   0.00    -0.03   0.21   0.96     0.00   0.01   0.20
     9   6     0.00   0.00   0.00     0.00   0.00   0.00     0.00   0.00   0.00
    10   8     0.00   0.00   0.00     0.00   0.00   0.00     0.00   0.00   0.00
    11   1     0.00   0.00   0.00     0.00   0.00   0.00     0.00   0.00   0.00
                     25                     26                     27
                      A                      A                      A
 Frequencies --   3071.0686              3083.3533              3520.3435
 Red. masses --      1.0569                 1.0985                 1.0653
 Frc consts  --      5.8732                 6.1532                 7.7784
 IR Inten    --      0.0000                 0.0000                 0.0000
  Atom  AN      X      Y      Z        X      Y      Z        X      Y      Z
     1   6    -0.06   0.02  -0.01     0.00   0.01  -0.09     0.00   0.00   0.00
     2   6     0.00   0.00   0.00     0.00   0.00   0.00     0.00   0.00   0.00
     3   6     0.00   0.00   0.00     0.00   0.00  -0.01     0.00   0.00   0.00
     4   1     0.67  -0.24   0.58     0.29  -0.10   0.21     0.00   0.00   0.00
     5   1     0.08   0.03  -0.39    -0.25  -0.05   0.88     0.00   0.00   0.00
     6   1     0.00  -0.01   0.01     0.00  -0.02   0.02     0.00   0.00   0.00
     7   1     0.00  -0.02   0.02     0.00  -0.07   0.05     0.00   0.00   0.00
     8   1     0.00   0.00   0.01     0.00   0.02   0.06     0.00   0.00   0.00
     9   6     0.00   0.00   0.00     0.00   0.00   0.00     0.00   0.00   0.00
    10   8     0.00   0.00   0.00     0.00   0.00   0.00     0.04  -0.03   0.04
    11   1     0.00   0.00   0.00     0.00   0.00   0.00    -0.67   0.50  -0.55

 -------------------
 - Thermochemistry -
 -------------------
 Temperature   298.150 Kelvin.  Pressure   1.00000 Atm.
 Atom     1 has atomic number  6 and mass  12.00000
 Atom     2 has atomic number  6 and mass  12.00000
 Atom     3 has atomic number  6 and mass  12.00000
 Atom     4 has atomic number  1 and mass   1.00783
 Atom     5 has atomic number  1 and mass   1.00783
 Atom     6 has atomic number  1 and mass   1.00783
 Atom     7 has atomic number  1 and mass   1.00783
 Atom     8 has atomic number  1 and mass   1.00783
 Atom     9 has atomic number  6 and mass  12.00000
 Atom    10 has atomic number  8 and mass  15.99491
 Atom    11 has atomic number  1 and mass   1.00783
 Molecular mass:    70.04186 amu.
 Principal axes and moments of inertia in atomic units:
                           1         2         3
     Eigenvalues --   120.78222 457.76001 512.67721
           X            0.99994  -0.00947   0.00625
           Y            0.00980   0.99849  -0.05397
           Z           -0.00573   0.05403   0.99852
 This molecule is an asymmetric top.
 Rotational symmetry number  1.
 Rotational temperatures (Kelvin)      0.71711     0.18921     0.16894
 Rotational constants (GHZ):          14.94211     3.94255     3.52023
    1 imaginary frequencies ignored.
 Zero-point vibrational energy     225297.3 (Joules/Mol)
                                   53.84734 (Kcal/Mol)
 Warning -- explicit consideration of   4 degrees of freedom as
           vibrations may cause significant error
 Vibrational temperatures:    351.56   429.07   704.10   753.65   909.24
          (Kelvin)           1145.29  1236.70  1326.50  1352.63  1467.25
                             1483.52  1577.66  1613.47  1636.05  1646.29
                             1733.35  1862.83  2029.65  2041.86  2095.06
                             4178.73  4327.03  4372.71  4418.58  4436.25
                             5064.98
 
 Zero-point correction=                           0.085811 (Hartree/Particle)
 Thermal correction to Energy=                    0.090587
 Thermal correction to Enthalpy=                  0.091531
 Thermal correction to Gibbs Free Energy=         0.058497
 Sum of electronic and zero-point Energies=            -15.442411
 Sum of electronic and thermal Energies=               -15.437635
 Sum of electronic and thermal Enthalpies=             -15.436691
 Sum of electronic and thermal Free Energies=          -15.469724
 
                     E (Thermal)             CV                S
                      KCal/Mol        Cal/Mol-Kelvin    Cal/Mol-Kelvin
 Total                   56.844             17.361             69.525
 Electronic               0.000              0.000              0.000
 Translational            0.889              2.981             38.657
 Rotational               0.889              2.981             24.853
 Vibrational             55.067             11.399              6.015
 Vibration     1          0.660              1.772              1.771
 Vibration     2          0.691              1.677              1.427
 Vibration     3          0.845              1.274              0.685
 Vibration     4          0.879              1.197              0.601
                       Q            Log10(Q)             Ln(Q)
 Total Bot       0.123905D-26        -26.906913        -61.955456
 Total V=0       0.365941D+13         12.563411         28.928324
 Vib (Bot)       0.892291D-39        -39.049493        -89.914781
 Vib (Bot)    1  0.800869D+00         -0.096439         -0.222058
 Vib (Bot)    2  0.638341D+00         -0.194947         -0.448882
 Vib (Bot)    3  0.338994D+00         -0.469808         -1.081772
 Vib (Bot)    4  0.307073D+00         -0.512758         -1.180668
 Vib (V=0)       0.263530D+01          0.420831          0.968999
 Vib (V=0)    1  0.144413D+01          0.159608          0.367510
 Vib (V=0)    2  0.131085D+01          0.117553          0.270677
 Vib (V=0)    3  0.110408D+01          0.043002          0.099016
 Vib (V=0)    4  0.108677D+01          0.036136          0.083206
 Electronic      0.100000D+01          0.000000          0.000000
 Translational   0.230405D+08          7.362492         16.952764
 Rotational      0.602683D+05          4.780089         11.006561
 ***** Axes restored to original set *****
 -------------------------------------------------------------------
 Center     Atomic                   Forces (Hartrees/Bohr)
 Number     Number              X              Y              Z
 -------------------------------------------------------------------
      1        6          -0.000041205    0.000000384    0.000053936
      2        6          -0.000028808   -0.000013151   -0.000016685
      3        6           0.000011082    0.000005293   -0.000135162
      4        1           0.000000192    0.000001385    0.000001178
      5        1          -0.000008441   -0.000000241    0.000001520
      6        1           0.000023103    0.000008498   -0.000024388
      7        1           0.000004457   -0.000011861    0.000027839
      8        1          -0.000008201   -0.000002526    0.000030633
      9        6           0.000029120    0.000017501    0.000080265
     10        8           0.000018393   -0.000005560   -0.000014996
     11        1           0.000000307    0.000000277   -0.000004139
 -------------------------------------------------------------------
 Cartesian Forces:  Max     0.000135162 RMS     0.000032910
 Force constants in Cartesian coordinates: 
                1             2             3             4             5 
      1  0.615151D+00
      2  0.677218D-01  0.292399D+00
      3 -0.176339D-01  0.523094D-01  0.564865D+00
      4 -0.227724D+00  0.613896D-01  0.371900D-01  0.528765D+00
      5  0.979258D-01 -0.531419D-01 -0.461653D-01  0.167735D-01  0.352472D+00
      6  0.416313D-01 -0.296432D-01 -0.628881D-01  0.228324D-01  0.226149D+00
      7 -0.108338D+00 -0.596674D-01  0.277536D-01  0.690028D-02  0.369474D-01
      8 -0.111473D+00 -0.135024D+00  0.510623D-01  0.638454D-02 -0.529936D-01
      9  0.174122D-01  0.265834D-01 -0.688913D-01 -0.292468D-01  0.622140D-01
     10 -0.177236D+00 -0.511323D-01 -0.115966D+00 -0.225297D-01 -0.684661D-02
     11 -0.511439D-01 -0.543354D-01 -0.428872D-01  0.109589D-01  0.590212D-02
     12 -0.118862D+00 -0.423447D-01 -0.143617D+00  0.276987D-02  0.157642D-04
     13 -0.571010D-01  0.294296D-02  0.623977D-01 -0.770050D-02  0.422640D-02
     14  0.376718D-02 -0.327800D-01 -0.161634D-01  0.736759D-02 -0.477017D-02
     15  0.628297D-01 -0.146415D-01 -0.283298D+00  0.478299D-02 -0.258196D-02
     16 -0.618559D-02  0.122162D-01  0.205458D-01 -0.482572D-01  0.189900D-01
     17  0.774571D-02 -0.205433D-02 -0.492686D-02  0.322574D-01 -0.127674D+00
     18 -0.521167D-03 -0.615717D-02 -0.764244D-02  0.189024D-01 -0.101686D+00
     19 -0.296915D-02 -0.194028D-01 -0.134704D-01  0.265496D-02 -0.105390D-01
     20 -0.832457D-02 -0.190159D-01 -0.449622D-02 -0.819083D-02  0.908066D-02
     21  0.226616D-02  0.604702D-02  0.245359D-02  0.296708D-02 -0.287306D-02
     22 -0.142866D-02 -0.493800D-02  0.226665D-01 -0.669899D-02  0.108057D-01
     23  0.120449D-02 -0.440820D-02  0.121837D-01  0.399625D-02 -0.152580D-01
     24  0.397575D-03  0.276638D-02 -0.500771D-02 -0.139548D-02  0.551491D-02
     25 -0.257766D-01 -0.807040D-02 -0.180509D-01 -0.169594D+00 -0.162679D+00
     26 -0.502953D-02  0.700187D-02  0.348393D-02 -0.994634D-01 -0.118850D+00
     27  0.148459D-01  0.103973D-01 -0.215825D-03 -0.342234D-01 -0.147977D+00
     28 -0.695928D-02  0.215023D-03 -0.522322D-02 -0.459207D-01 -0.506971D-02
     29 -0.249639D-02  0.151247D-02 -0.385923D-02 -0.283362D-01  0.357420D-02
     30 -0.301899D-02 -0.554569D-02  0.339764D-02 -0.269646D-01  0.787482D-02
     31 -0.143217D-02 -0.127462D-02 -0.208760D-03 -0.989516D-02 -0.534884D-03
     32  0.102268D-03 -0.153597D-03 -0.541210D-03 -0.313736D-02  0.165943D-02
     33  0.653653D-03  0.228710D-03  0.844168D-03  0.238549D-02 -0.485388D-03
                6             7             8             9            10 
      6  0.373250D+00
      7 -0.290948D-02  0.174142D+00
      8 -0.518810D-02  0.771219D-01  0.467672D+00
[...]
         message file     "D:\software\G09W\Scratch\gxx.EMs"
         fchk file        "D:\software\G09W\Scratch\gxx.EFC"
         mat. el file     "D:\software\G09W\Scratch\gxx.EUF"
 Recovered energy= -15.5503258245     dipole=      0.000000000000      0.000000000000      0.000000000000
 Energy=    -15.5503258     NIter=   0.
 Dipole moment=       0.000000       0.000000       0.000000
 Leave Link  402 at Wed May 27 04:24:39 2026, MaxMem=    33554432 cpu:         1.0
 (Enter D:\software\G09W\l716.exe)
 Dipole        = 0.00000000D+00 0.00000000D+00 0.00000000D+00
 -------------------------------------------------------------------
 Center     Atomic                   Forces (Hartrees/Bohr)
 Number     Number              X              Y              Z
 -------------------------------------------------------------------
      1        6           0.000576858   -0.001174164    0.001792895
      2        6           0.001042050    0.005742959   -0.002478115
      3        6          -0.006775631    0.001205298   -0.002615414
      4        1           0.000143069   -0.000484408    0.000509424
      5        1           0.000386394   -0.000083081    0.000169602
      6        1           0.000072583    0.000455139   -0.000211248
      7        1          -0.000689329    0.000309689   -0.000525479
      8        1          -0.001067431   -0.000161956   -0.000133889
      9        6           0.002224611   -0.001325201    0.000390488
     10        8           0.003814375   -0.003767946    0.002790887
     11        1           0.000272451   -0.000716329    0.000310850
 -------------------------------------------------------------------
 Cartesian Forces:  Max     0.006775631 RMS     0.002106279
 Leave Link  716 at Wed May 27 04:24:39 2026, MaxMem=    33554432 cpu:         0.0
 (Enter D:\software\G09W\l123.exe)
 IRC-IRC-IRC-IRC-IRC-IRC-IRC-IRC-IRC-IRC-IRC-IRC-IRC-IRC-IRC-IRC-IRC-IRC
 Pt 39 Step number   1 out of a maximum of  10
 Using modified Bulirsch-Stoer corrector integration.
   Using distance weighted interpolants to fit PES.
 PreDWI: IReCr0= 2 IReCr1= 1 IReCr2= 1 IReCr3= 1
 Modified Bulirsch-Stoer Extrapolation Cycles:
    EPS =    0.000010000000000
    Cycle     1 NS=    48
    Cycle     2 NS=    64 Truncation Error =  0.000037104
    Cycle     3 NS=    96 Truncation Error =  0.000000071
 BS completed in    3 cycles and     208 integration steps.
 Maximum DWI energy   std dev =  0.000000121 at pt    66
 Maximum DWI gradient std dev =  0.018182130 at pt    39
 SUMMARY OF CORRECTOR INTEGRATION:
   Predictor End Point Energy =   -15.550326
   Old End Point Energy       =   -15.550326
   Corrected End Point Energy =   -15.550326
   Predictor End-Start Dist.  =     0.178320
   Old End-Start Dist.        =     0.178320
   New End-Start Dist.        =     0.178293
   New End-Old End Dist.      =     0.002142
 CORRECTOR INTEGRATION CONVERGENCE:
   Recorrection delta-x convergence threshold:    0.010000
   Delta-x Convergence Met
 Point Number:  19          Path Number:   2
                    CURRENT STRUCTURE
                Cartesian Coordinates (Ang):                
 ---------------------------------------------------------------------
 Center     Atomic                     Coordinates (Angstroms)
 Number     Number                        X           Y           Z
 ---------------------------------------------------------------------
      1          6                   -1.723815   -0.224470    0.222213
      2          6                   -0.329937   -0.530935   -0.206936
      3          6                   -0.930413    0.870416   -0.405479
      4          1                   -2.516948   -0.670239   -0.358973
      5          1                   -1.931106   -0.145364    1.277970
      6          1                   -0.158984   -1.122124   -1.102369
      7          1                   -0.570640    1.653962    0.247013
      8          1                   -1.115884    1.187146   -1.419726
      9          6                    0.776729   -0.095916    0.634843
     10          8                    1.887347   -0.090443   -0.121562
     11          1                    2.620970    0.302874    0.372973
 ---------------------------------------------------------------------
   CHANGE IN THE REACTION COORDINATE =    0.17829
   NET REACTION COORDINATE UP TO THIS POINT =    3.38709
  # OF POINTS ALONG THE PATH =  39
  # OF STEPS =   1

 Calculating another point on the path.
 Point Number 20 in REVERSE path direction.
 Using LQA Reaction Path Following.
   LQA: T_Est iteration completed in    4 iterations.
 IRC-IRC-IRC-IRC-IRC-IRC-IRC-IRC-IRC-IRC-IRC-IRC-IRC-IRC-IRC-IRC-IRC-IRC
 Leave Link  123 at Wed May 27 04:24:39 2026, MaxMem=    33554432 cpu:         0.0
 (Enter D:\software\G09W\l202.exe)
                          Input orientation:                          
 ---------------------------------------------------------------------
 Center     Atomic      Atomic             Coordinates (Angstroms)
 Number     Number       Type             X           Y           Z
 ---------------------------------------------------------------------
      1          6           0       -1.722735   -0.226985    0.225970
      2          6           0       -0.327589   -0.519405   -0.212024
      3          6           0       -0.944192    0.873013   -0.410744
      4          1           0       -2.515679   -0.683069   -0.347603
      5          1           0       -1.921964   -0.147702    1.283310
      6          1           0       -0.156943   -1.110763   -1.107537
      7          1           0       -0.586961    1.662553    0.234900
      8          1           0       -1.142568    1.183887   -1.424648
      9          6           0        0.781238   -0.098274    0.635356
     10          8           0        1.893074   -0.096441   -0.117202
     11          1           0        2.629731    0.286071    0.381936
 ---------------------------------------------------------------------
                    Distance matrix (angstroms):
                    1          2          3          4          5
     1  C    0.000000
     2  C    1.491236   0.000000
     3  C    1.490480   1.535746   0.000000
     4  H    1.079703   2.198388   2.212454   0.000000
     5  H    1.078862   2.217255   2.206290   1.816312   0.000000
     6  H    2.238528   1.086631   2.245138   2.514768   3.123929
     7  H    2.204635   2.242310   1.080668   3.092120   2.481616
     8  H    2.247597   2.244070   1.078887   2.555579   3.116668
     9  C    2.540481   1.457704   2.239381   3.489678   2.780214
    10  O    3.634403   2.262572   3.012654   4.453574   4.064305
    11  H    4.385375   3.122070   3.707528   5.286465   4.660318
                    6          7          8          9         10
     6  H    0.000000
     7  H    3.111002   0.000000
     8  H    2.517426   1.814365   0.000000
     9  C    2.223284   2.265578   3.096543   0.000000
    10  O    2.492425   3.060818   3.544542   1.342582   0.000000
    11  H    3.454740   3.501918   4.277857   1.904960   0.968565
                   11
    11  H    0.000000
 Symmetry turned off by external request.
 Stoichiometry    C4H6O
 Framework group  C1[X(C4H6O)]
 Deg. of freedom    27
 Full point group                 C1      NOp   1
 Rotational constants (GHZ):     15.6706571      3.5356912      3.3161746
 Leave Link  202 at Wed May 27 04:24:39 2026, MaxMem=    33554432 cpu:         0.0
 (Enter D:\software\G09W\l301.exe)
 Standard basis: STO-3G (5D, 7F)
 Ernie: Thresh=  0.10000D-02 Tol=  0.10000D-05 Strict=F.
    31 basis functions,    93 primitive gaussians,    31 cartesian basis functions
    19 alpha electrons       19 beta electrons
       nuclear repulsion energy       165.1101328638 Hartrees.
 IExCor=    0 DFT=F Ex=HF Corr=None ExCW=0 ScaHFX=  1.000000
 ScaDFX=  1.000000  1.000000  1.000000  1.000000 ScalE2=  1.000000  1.000000
 IRadAn=      0 IRanWt=     -1 IRanGd=            0 ICorTp=0 IEmpDi=  4
 NAtoms=   11 NActive=   11 NUniq=   11 SFac= 1.00D+00 NAtFMM=   60 NAOKFM=F Big=F
 Integral buffers will be    262144 words long.
 Raffenetti 1 integral format.
 Two-electron integral symmetry is turned off.
 Leave Link  301 at Wed May 27 04:24:39 2026, MaxMem=    33554432 cpu:         0.0
 (Enter D:\software\G09W\l402.exe)
 External calculation of energy and first derivatives.
 Running external command "python3 D:\work\bbs\gau_xtb\gau_xtb.py R"
         input file       "D:\software\G09W\Scratch\gxx.EIn"
         output file      "D:\software\G09W\Scratch\gxx.EOu"
         message file     "D:\software\G09W\Scratch\gxx.EMs"
         fchk file        "D:\software\G09W\Scratch\gxx.EFC"
         mat. el file     "D:\software\G09W\Scratch\gxx.EUF"
 Recovered energy= -15.5509890089     dipole=      0.000000000000      0.000000000000      0.000000000000
 NRF= 0 NRA=   0 NVA=   0 HaveQM=F NVQ=       0
 Convergence limit is  0.750E-04 MaxStp= 10000 StMxLn= 3.00D-04 StpMin= 1.00D-06.
 Convergence criteria             0.00011250 0.00007500 0.00045000 0.00030000
  Step  NS  ND Rises OKQ   Scale  Max. Force  RMS Force Max. Disp.  RMS Disp.     Energy   Flag
     1   0   0   F    T  1.00D+00 0.00000000 0.00000000 0.00000000 0.00000000  -15.5509890 ====
 Running external command "python3 D:\work\bbs\gau_xtb\gau_xtb.py R"
         input file       "D:\software\G09W\Scratch\gxx.EIn"
         output file      "D:\software\G09W\Scratch\gxx.EOu"
         message file     "D:\software\G09W\Scratch\gxx.EMs"
         fchk file        "D:\software\G09W\Scratch\gxx.EFC"
         mat. el file     "D:\software\G09W\Scratch\gxx.EUF"
 Recovered energy= -15.5509890089     dipole=      0.000000000000      0.000000000000      0.000000000000
 Energy=    -15.5509890     NIter=   0.
 Dipole moment=       0.000000       0.000000       0.000000
 Leave Link  402 at Wed May 27 04:24:40 2026, MaxMem=    33554432 cpu:         1.0
 (Enter D:\software\G09W\l716.exe)
 Dipole        = 0.00000000D+00 0.00000000D+00 0.00000000D+00
 -------------------------------------------------------------------
 Center     Atomic                   Forces (Hartrees/Bohr)
 Number     Number              X              Y              Z
 -------------------------------------------------------------------
      1        6           0.000603066   -0.001164547    0.001645626
      2        6           0.001099589    0.005249752   -0.002305363
      3        6          -0.006661932    0.001046589   -0.002579313
      4        1           0.000143592   -0.000462439    0.000475561
      5        1           0.000369178   -0.000091598    0.000146478
      6        1           0.000073570    0.000433466   -0.000177896
      7        1          -0.000464166    0.000541250   -0.000234348
      8        1          -0.000983294   -0.000195328   -0.000070225
      9        6           0.001952786   -0.000906201    0.000023743
     10        8           0.003641655   -0.003753412    0.002791833
     11        1           0.000225957   -0.000697532    0.000283905
 -------------------------------------------------------------------
 Cartesian Forces:  Max     0.006661932 RMS     0.002011057
 Leave Link  716 at Wed May 27 04:24:40 2026, MaxMem=    33554432 cpu:         0.0
 (Enter D:\software\G09W\l123.exe)
 IRC-IRC-IRC-IRC-IRC-IRC-IRC-IRC-IRC-IRC-IRC-IRC-IRC-IRC-IRC-IRC-IRC-IRC
 Pt 40 Step number   1 out of a maximum of  10
 Using modified Bulirsch-Stoer corrector integration.
   Using distance weighted interpolants to fit PES.
 PreDWI: IReCr0= 2 IReCr1= 1 IReCr2= 1 IReCr3= 1
 Modified Bulirsch-Stoer Extrapolation Cycles:
    EPS =    0.000010000000000
    Cycle     1 NS=    48
    Cycle     2 NS=    64 Truncation Error =  0.000032758
    Cycle     3 NS=    96 Truncation Error =  0.000000061
 BS completed in    3 cycles and     208 integration steps.
 Maximum DWI energy   std dev =  0.000000080 at pt    77
 Maximum DWI gradient std dev =  0.033282697 at pt    29
 SUMMARY OF CORRECTOR INTEGRATION:
   Predictor End Point Energy =   -15.550989
   Old End Point Energy       =   -15.550989
   Corrected End Point Energy =   -15.550989
   Predictor End-Start Dist.  =     0.178325
   Old End-Start Dist.        =     0.178325
   New End-Start Dist.        =     0.178297
   New End-Old End Dist.      =     0.002763
 CORRECTOR INTEGRATION CONVERGENCE:
   Recorrection delta-x convergence threshold:    0.010000
   Delta-x Convergence Met
 Point Number:  20          Path Number:   2
                    CURRENT STRUCTURE
                Cartesian Coordinates (Ang):                
 ---------------------------------------------------------------------
 Center     Atomic                     Coordinates (Angstroms)
 Number     Number                        X           Y           Z
 ---------------------------------------------------------------------
      1          6                   -1.722667   -0.226953    0.225938
      2          6                   -0.327567   -0.519419   -0.212005
      3          6                   -0.944392    0.873033   -0.410746
      4          1                   -2.515431   -0.682993   -0.347674
      5          1                   -1.921953   -0.147700    1.283190
      6          1                   -0.156978   -1.110917   -1.107389
      7          1                   -0.586003    1.662673    0.235372
      8          1                   -1.142322    1.183700   -1.424472
      9          6                    0.781230   -0.098273    0.635300
     10          8                    1.893088   -0.096467   -0.117186
     11          1                    2.629485    0.286184    0.381886
 ---------------------------------------------------------------------
   CHANGE IN THE REACTION COORDINATE =    0.17830
   NET REACTION COORDINATE UP TO THIS POINT =    3.56538
  # OF POINTS ALONG THE PATH =  40
  # OF STEPS =   1

 Maximum number of steps reached.
 Calculation of REVERSE path complete.
 Reaction path calculation complete.
 
 Energies reported relative to the TS energy of         -15.528222
 --------------------------------------------------------------------------
    Summary of reaction path following
 --------------------------------------------------------------------------
                        Energy    RxCoord
   1                   -0.02277  -3.56538
   2                   -0.02210  -3.38709
   3                   -0.02140  -3.20879
   4                   -0.02064  -3.03051
   5                   -0.01983  -2.85224
   6                   -0.01896  -2.67399
   7                   -0.01801  -2.49577
   8                   -0.01698  -2.31755
   9                   -0.01586  -2.13933
  10                   -0.01462  -1.96110
  11                   -0.01328  -1.78285
  12                   -0.01183  -1.60459
  13                   -0.01028  -1.42632
  14                   -0.00867  -1.24805
  15                   -0.00702  -1.06977
  16                   -0.00537  -0.89148
  17                   -0.00378  -0.71319
  18                   -0.00233  -0.53490
  19                   -0.00113  -0.35661
  20                   -0.00031  -0.17834
  21                    0.00000   0.00000
  22                   -0.00033   0.17834
  23                   -0.00141   0.35663
  24                   -0.00326   0.53494
  25                   -0.00588   0.71325
  26                   -0.00922   0.89157
  27                   -0.01318   1.06989
  28                   -0.01765   1.24821
  29                   -0.02252   1.42653
  30                   -0.02768   1.60485
  31                   -0.03300   1.78316
  32                   -0.03840   1.96148
  33                   -0.04379   2.13980
  34                   -0.04909   2.31811
  35                   -0.05425   2.49643
  36                   -0.05921   2.67474
  37                   -0.06393   2.85304
  38                   -0.06838   3.03135
  39                   -0.07256   3.20965
  40                   -0.07644   3.38795
  41                   -0.08002   3.56625
 --------------------------------------------------------------------------
 
 Total number of points:                   40
 Total number of gradient calculations:    40
 Total number of Hessian calculations:      0
 IRC-IRC-IRC-IRC-IRC-IRC-IRC-IRC-IRC-IRC-IRC-IRC-IRC-IRC-IRC-IRC-IRC-IRC
 Leave Link  123 at Wed May 27 04:24:40 2026, MaxMem=    33554432 cpu:         0.0
 (Enter D:\software\G09W\l202.exe)
                          Input orientation:                          
 ---------------------------------------------------------------------
 Center     Atomic      Atomic             Coordinates (Angstroms)
 Number     Number       Type             X           Y           Z
 ---------------------------------------------------------------------
      1          6           0       -1.722735   -0.226985    0.225970
      2          6           0       -0.327589   -0.519405   -0.212024
      3          6           0       -0.944192    0.873013   -0.410744
      4          1           0       -2.515679   -0.683069   -0.347603
      5          1           0       -1.921964   -0.147702    1.283310
      6          1           0       -0.156943   -1.110763   -1.107537
      7          1           0       -0.586961    1.662553    0.234900
      8          1           0       -1.142568    1.183887   -1.424648
      9          6           0        0.781238   -0.098274    0.635356
     10          8           0        1.893074   -0.096441   -0.117202
     11          1           0        2.629731    0.286071    0.381936
 ---------------------------------------------------------------------
                    Distance matrix (angstroms):
                    1          2          3          4          5
     1  C    0.000000
     2  C    1.491236   0.000000
     3  C    1.490480   1.535746   0.000000
     4  H    1.079703   2.198388   2.212454   0.000000
     5  H    1.078862   2.217255   2.206290   1.816312   0.000000
     6  H    2.238528   1.086631   2.245138   2.514768   3.123929
     7  H    2.204635   2.242310   1.080668   3.092120   2.481616
     8  H    2.247597   2.244070   1.078887   2.555579   3.116668
     9  C    2.540481   1.457704   2.239381   3.489678   2.780214
    10  O    3.634403   2.262572   3.012654   4.453574   4.064305
    11  H    4.385375   3.122070   3.707528   5.286465   4.660318
                    6          7          8          9         10
     6  H    0.000000
     7  H    3.111002   0.000000
     8  H    2.517426   1.814365   0.000000
     9  C    2.223284   2.265578   3.096543   0.000000
    10  O    2.492425   3.060818   3.544542   1.342582   0.000000
    11  H    3.454740   3.501918   4.277857   1.904960   0.968565
                   11
    11  H    0.000000
 Symmetry turned off by external request.
 Stoichiometry    C4H6O
 Framework group  C1[X(C4H6O)]
 Deg. of freedom    27
 Full point group                 C1      NOp   1
 Rotational constants (GHZ):     15.6706571      3.5356912      3.3161746
 Leave Link  202 at Wed May 27 04:24:40 2026, MaxMem=    33554432 cpu:         0.0
 (Enter D:\software\G09W\l601.exe)
 Leave Link  601 at Wed May 27 04:24:40 2026, MaxMem=    33554432 cpu:         0.0
 (Enter D:\software\G09W\l9999.exe)

 This type of calculation cannot be archived.


 THE THINKER DIES, BUT HIS THOUGHTS ARE BEYOND THE 
 REACH OF DESTRUCTION.  MEN ARE MORTAL; BUT IDEAS 
 ARE IMMORTAL.
                              -- WALTER LIPPMANN
 Job cpu time:       0 days  0 hours  0 minutes 45.0 seconds.
 File lengths (MBytes):  RWF=      5 Int=      0 D2E=      0 Chk=      2 Scr=      1
 Normal termination of Gaussian 09 at Wed May 27 04:24:40 2026.
